
     Program PWSCF v.5.2.0 starts on 23Sep2015 at 23:19: 7 

     This program is part of the open-source Quantum ESPRESSO suite
     for quantum simulation of materials; please cite
         "P. Giannozzi et al., J. Phys.:Condens. Matter 21 395502 (2009);
          URL http://www.quantum-espresso.org", 
     in publications or presentations arising from this work. More details at
     http://www.quantum-espresso.org/quote

     Parallel version (MPI), running on     1 processors
     Reading input from /home/yu/workspace/espresso/espresso-5.2.0/PW/tests/noncolin-constrain_total.in

     Current dimensions of program PWSCF are:
     Max number of different atomic species (ntypx) = 10
     Max number of k-points (npk) =  40000
     Max angular momentum in pseudopotentials (lmaxx) =  3
               file Fe.pz-nd-rrkjus.UPF: wavefunction(s)  4S renormalized

     Subspace diagonalization in iterative solution of the eigenvalue problem:
     a serial algorithm will be used

 
     G-vector sticks info
     --------------------
     sticks:   dense  smooth     PW     G-vecs:    dense   smooth      PW
     Sum         307     155     55                 3367     1205     249
 
     Generating pointlists ...
     new r_m :   0.3572 (alat units)  1.8637 (a.u.) for type    1


     bravais-lattice index     =            3
     lattice parameter (alat)  =       5.2170  a.u.
     unit-cell volume          =      70.9958 (a.u.)^3
     number of atoms/cell      =            1
     number of atomic types    =            1
     number of electrons       =         8.00
     number of Kohn-Sham states=           16
     kinetic-energy cutoff     =      25.0000  Ry
     charge density cutoff     =     200.0000  Ry
     convergence threshold     =      1.0E-09
     mixing beta               =       0.3000
     number of iterations used =            8  plain     mixing
     Exchange-correlation      =  SLA  PZ   NOGX NOGC ( 1  1  0  0 0 0)
     Noncollinear calculation without spin-orbit


     celldm(1)=   5.217000  celldm(2)=   0.000000  celldm(3)=   0.000000
     celldm(4)=   0.000000  celldm(5)=   0.000000  celldm(6)=   0.000000

     crystal axes: (cart. coord. in units of alat)
               a(1) = (   0.500000   0.500000   0.500000 )  
               a(2) = (  -0.500000   0.500000   0.500000 )  
               a(3) = (  -0.500000  -0.500000   0.500000 )  

     reciprocal axes: (cart. coord. in units 2 pi/alat)
               b(1) = (  1.000000  0.000000  1.000000 )  
               b(2) = ( -1.000000  1.000000  0.000000 )  
               b(3) = (  0.000000 -1.000000  1.000000 )  


     PseudoPot. # 1 for Fe read from file:
     /home/yu/workspace/espresso/espresso-5.2.0/pseudo/Fe.pz-nd-rrkjus.UPF
     MD5 check sum: 2e083728ad07023434bc1cc596eb954d
     Pseudo is Ultrasoft + core correction, Zval =  8.0
     Generated by new atomic code, or converted to UPF format
     Using radial grid of  957 points,  6 beta functions with: 
                l(1) =   0
                l(2) =   0
                l(3) =   1
                l(4) =   1
                l(5) =   2
                l(6) =   2
     Q(r) pseudized with 0 coefficients 


     atomic species   valence    mass     pseudopotential
        Fe             8.00    55.84700     Fe( 1.00)

      2 Sym. Ops., with inversion, found



   Cartesian axes

     site n.     atom                  positions (alat units)
         1           Fe  tau(   1) = (   0.0000000   0.0000000   0.0000000  )

     number of k points=    32  Marzari-Vanderbilt smearing, width (Ry)=  0.0500
                       cart. coord. in units 2pi/alat
        k(    1) = (   0.0000000   0.0000000   0.2500000), wk =   0.0312500
        k(    2) = (   0.0000000  -0.2500000   0.5000000), wk =   0.0312500
        k(    3) = (  -0.2500000   0.2500000   0.2500000), wk =   0.0312500
        k(    4) = (  -0.2500000   0.7500000  -0.2500000), wk =   0.0312500
        k(    5) = (   0.5000000  -0.5000000   0.2500000), wk =   0.0312500
        k(    6) = (   0.0000000   0.0000000   0.7500000), wk =   0.0312500
        k(    7) = (   0.2500000   0.0000000   0.0000000), wk =   0.0312500
        k(    8) = (   0.0000000   0.2500000   0.0000000), wk =   0.0312500
        k(    9) = (   0.0000000  -0.2500000  -0.5000000), wk =   0.0312500
        k(   10) = (  -0.2500000   0.0000000  -0.5000000), wk =   0.0312500
        k(   11) = (   0.2500000   0.0000000  -0.5000000), wk =   0.0312500
        k(   12) = (   0.5000000   0.2500000   0.0000000), wk =   0.0312500
        k(   13) = (  -0.5000000   0.2500000   0.0000000), wk =   0.0312500
        k(   14) = (   0.0000000   0.5000000  -0.2500000), wk =   0.0312500
        k(   15) = (   0.0000000   0.5000000   0.2500000), wk =   0.0312500
        k(   16) = (  -0.2500000   0.5000000   0.0000000), wk =   0.0312500
        k(   17) = (   0.2500000   0.5000000   0.0000000), wk =   0.0312500
        k(   18) = (   0.5000000   0.0000000  -0.2500000), wk =   0.0312500
        k(   19) = (   0.5000000   0.0000000   0.2500000), wk =   0.0312500
        k(   20) = (   0.2500000   0.2500000  -0.2500000), wk =   0.0312500
        k(   21) = (  -0.2500000  -0.2500000  -0.2500000), wk =   0.0312500
        k(   22) = (  -0.2500000   0.2500000  -0.2500000), wk =   0.0312500
        k(   23) = (   0.2500000   0.7500000   0.2500000), wk =   0.0312500
        k(   24) = (  -0.2500000  -0.7500000   0.2500000), wk =   0.0312500
        k(   25) = (   0.7500000  -0.2500000   0.2500000), wk =   0.0312500
        k(   26) = (  -0.5000000  -0.5000000  -0.2500000), wk =   0.0312500
        k(   27) = (   0.2500000   0.5000000   0.5000000), wk =   0.0312500
        k(   28) = (  -0.2500000   0.5000000  -0.5000000), wk =   0.0312500
        k(   29) = (  -0.5000000   0.2500000  -0.5000000), wk =   0.0312500
        k(   30) = (  -0.5000000  -0.2500000   0.5000000), wk =   0.0312500
        k(   31) = (   0.7500000   0.0000000   0.0000000), wk =   0.0312500
        k(   32) = (   0.0000000   0.7500000   0.0000000), wk =   0.0312500

     Dense  grid:     3367 G-vectors     FFT dimensions: (  24,  24,  24)

     Smooth grid:     1205 G-vectors     FFT dimensions: (  15,  15,  15)

     Largest allocated arrays     est. size (Mb)     dimensions
        Kohn-Sham Wavefunctions         0.08 Mb     (     318,   16)
        NL pseudopotentials             0.04 Mb     (     159,   18)
        Each V/rho on FFT grid          0.21 Mb     (   13824)
        Each G-vector array             0.03 Mb     (    3367)
        G-vector shells                 0.00 Mb     (      64)
     Largest temporary arrays     est. size (Mb)     dimensions
        Auxiliary wavefunctions         0.31 Mb     (     318,   64)
        Each subspace H/S matrix        0.06 Mb     (      64,   64)
        Each <psi_i|beta_j> matrix      0.01 Mb     (      18,   2,   16)
        Arrays for rho mixing           1.69 Mb     (   13824,    8)

     Check: negative/imaginary core charge=   -0.000013    0.000000

     Initial potential from superposition of free atoms

     starting charge    7.99953, renormalised to    8.00000
      External magnetic field:      -1.40219     -1.85888     -2.32843

 ==============================================================================
     atom number    1 relative position :    0.0000   0.0000   0.0000
     charge :     6.664635
     magnetization :          1.418059    1.881828    2.356304
     magnetization/charge:    0.212774    0.282360    0.353553
     polar coord.: r, theta, phi [deg] :     3.332318   45.000000   53.000000

 ==============================================================================
     Starting wfc are   12 randomized atomic wfcs +    4 random wfc

     total cpu time spent up to now is        0.5 secs

     per-process dynamical memory:    26.1 Mb

     Self-consistent Calculation

     iteration #  1     ecut=    25.00 Ry     beta=0.30
     Davidson diagonalization with overlap
     ethr =  1.00E-02,  avg # of iterations = 13.8
      External magnetic field:       0.13056      0.17370      0.21696

 ==============================================================================
     atom number    1 relative position :    0.0000   0.0000   0.0000
     charge :     6.446359
     magnetization :          0.234110    0.311683    0.390180
     magnetization/charge:    0.036317    0.048350    0.060527
     polar coord.: r, theta, phi [deg] :     0.551538   44.972956   53.089266

 ==============================================================================

     total cpu time spent up to now is        1.7 secs

     total energy              =     -49.81719842 Ry
     Harris-Foulkes estimate   =     -91.11127859 Ry
     estimated scf accuracy    <       2.17499733 Ry

     total magnetization       =    -3.41    -4.52    -5.66 Bohr mag/cell
     absolute magnetization    =     8.00 Bohr mag/cell
     Magnetic field            =   0.1305631   0.1736956   0.2169555 Ry
     lambda                    =       0.50 Ry

     iteration #  2     ecut=    25.00 Ry     beta=0.30
     Davidson diagonalization with overlap
     ethr =  1.00E-02,  avg # of iterations =  6.4
      External magnetic field:      -0.20589     -0.27371     -0.34184

 ==============================================================================
     atom number    1 relative position :    0.0000   0.0000   0.0000
     charge :     6.429165
     magnetization :          0.514219    0.684341    0.855520
     magnetization/charge:    0.079982    0.106443    0.133069
     polar coord.: r, theta, phi [deg] :     1.210230   45.016233   53.078564

 ==============================================================================

     total cpu time spent up to now is        2.5 secs

     total energy              =     -54.06914925 Ry
     Harris-Foulkes estimate   =     -56.28645457 Ry
     estimated scf accuracy    <       0.19951793 Ry

     total magnetization       =     1.60     2.13     2.66 Bohr mag/cell
     absolute magnetization    =     3.77 Bohr mag/cell
     Magnetic field            =  -0.2058912  -0.2737109  -0.3418413 Ry
     lambda                    =       0.50 Ry

     iteration #  3     ecut=    25.00 Ry     beta=0.30
     Davidson diagonalization with overlap
     ethr =  2.49E-03,  avg # of iterations =  4.6
      External magnetic field:       0.07343      0.09771      0.12206

 ==============================================================================
     atom number    1 relative position :    0.0000   0.0000   0.0000
     charge :     6.407114
     magnetization :          0.264599    0.352501    0.440964
     magnetization/charge:    0.041298    0.055017    0.068824
     polar coord.: r, theta, phi [deg] :     0.623473   44.986775   53.106828

 ==============================================================================

     total cpu time spent up to now is        3.0 secs

     total energy              =     -53.83961407 Ry
     Harris-Foulkes estimate   =     -57.46785425 Ry
     estimated scf accuracy    <       0.65781043 Ry

     total magnetization       =    -1.99    -2.64    -3.30 Bohr mag/cell
     absolute magnetization    =     4.67 Bohr mag/cell
     Magnetic field            =   0.0734254   0.0977135   0.1220605 Ry
     lambda                    =       0.50 Ry

     iteration #  4     ecut=    25.00 Ry     beta=0.30
     Davidson diagonalization with overlap
     ethr =  2.49E-03,  avg # of iterations =  1.1
      External magnetic field:      -0.00170     -0.00227     -0.00286

 ==============================================================================
     atom number    1 relative position :    0.0000   0.0000   0.0000
     charge :     6.412627
     magnetization :          0.330583    0.440363    0.550686
     magnetization/charge:    0.051552    0.068671    0.085875
     polar coord.: r, theta, phi [deg] :     0.778756   44.997596   53.104226

 ==============================================================================

     total cpu time spent up to now is        3.3 secs

     total energy              =     -55.41631842 Ry
     Harris-Foulkes estimate   =     -55.87270614 Ry
     estimated scf accuracy    <       0.14273868 Ry

     total magnetization       =     1.36     1.81     2.26 Bohr mag/cell
     absolute magnetization    =     3.19 Bohr mag/cell
     Magnetic field            =  -0.0017029  -0.0022734  -0.0028561 Ry
     lambda                    =       0.50 Ry

     iteration #  5     ecut=    25.00 Ry     beta=0.30
     Davidson diagonalization with overlap
     ethr =  1.78E-03,  avg # of iterations =  1.0
      External magnetic field:       0.00018      0.00025      0.00030

 ==============================================================================
     atom number    1 relative position :    0.0000   0.0000   0.0000
     charge :     6.411859
     magnetization :          0.328654    0.437792    0.547462
     magnetization/charge:    0.051257    0.068278    0.085383
     polar coord.: r, theta, phi [deg] :     0.774203   44.998111   53.104084

 ==============================================================================

     total cpu time spent up to now is        3.6 secs

     total energy              =     -55.54600526 Ry
     Harris-Foulkes estimate   =     -55.54495957 Ry
     estimated scf accuracy    <       0.00269714 Ry

     total magnetization       =     0.41     0.54     0.68 Bohr mag/cell
     absolute magnetization    =     0.99 Bohr mag/cell
     Magnetic field            =   0.0001828   0.0002494   0.0003005 Ry
     lambda                    =       0.50 Ry

     iteration #  6     ecut=    25.00 Ry     beta=0.30
     Davidson diagonalization with overlap
     ethr =  3.37E-05,  avg # of iterations =  4.4
      External magnetic field:      -0.03679     -0.04793     -0.05955

 ==============================================================================
     atom number    1 relative position :    0.0000   0.0000   0.0000
     charge :     6.417589
     magnetization :          0.353383    0.469731    0.587068
     magnetization/charge:    0.055065    0.073194    0.091478
     polar coord.: r, theta, phi [deg] :     0.830768   45.036438   53.045463

 ==============================================================================

     total cpu time spent up to now is        4.1 secs

     total energy              =     -55.52131512 Ry
     Harris-Foulkes estimate   =     -55.54670384 Ry
     estimated scf accuracy    <       0.00468207 Ry

     total magnetization       =     0.47     0.62     0.77 Bohr mag/cell
     absolute magnetization    =     1.12 Bohr mag/cell
     Magnetic field            =  -0.0367887  -0.0479304  -0.0595532 Ry
     lambda                    =       0.50 Ry

     iteration #  7     ecut=    25.00 Ry     beta=0.30
     Davidson diagonalization with overlap
     ethr =  3.37E-05,  avg # of iterations =  1.6
      External magnetic field:      -0.03764     -0.04948     -0.06163

 ==============================================================================
     atom number    1 relative position :    0.0000   0.0000   0.0000
     charge :     6.417726
     magnetization :          0.352726    0.469270    0.586622
     magnetization/charge:    0.054961    0.073121    0.091407
     polar coord.: r, theta, phi [deg] :     0.829913   45.020994   53.069705

 ==============================================================================

     total cpu time spent up to now is        4.5 secs

     total energy              =     -55.65322494 Ry
     Harris-Foulkes estimate   =     -55.64638115 Ry
     estimated scf accuracy    <       0.15316408 Ry

     total magnetization       =    -0.72    -0.93    -1.16 Bohr mag/cell
     absolute magnetization    =     1.65 Bohr mag/cell
     Magnetic field            =  -0.0376400  -0.0494799  -0.0616256 Ry
     lambda                    =       0.50 Ry

     iteration #  8     ecut=    25.00 Ry     beta=0.30
     Davidson diagonalization with overlap
     ethr =  3.37E-05,  avg # of iterations =  1.5
      External magnetic field:      -0.03952     -0.04999     -0.06161

 ==============================================================================
     atom number    1 relative position :    0.0000   0.0000   0.0000
     charge :     6.417781
     magnetization :          0.353514    0.468445    0.584973
     magnetization/charge:    0.055084    0.072992    0.091149
     polar coord.: r, theta, phi [deg] :     0.828617   45.092595   52.959759

 ==============================================================================

     total cpu time spent up to now is        4.9 secs

     total energy              =     -55.65613461 Ry
     Harris-Foulkes estimate   =     -55.65329192 Ry
     estimated scf accuracy    <       0.15844683 Ry

     total magnetization       =    -0.73    -0.96    -1.19 Bohr mag/cell
     absolute magnetization    =     1.70 Bohr mag/cell
     Magnetic field            =  -0.0395191  -0.0499928  -0.0616137 Ry
     lambda                    =       0.50 Ry

     iteration #  9     ecut=    25.00 Ry     beta=0.30
     Davidson diagonalization with overlap
     ethr =  3.37E-05,  avg # of iterations =  2.0
      External magnetic field:      -0.07154     -0.09400     -0.11704

 ==============================================================================
     atom number    1 relative position :    0.0000   0.0000   0.0000
     charge :     6.424346
     magnetization :          0.332309    0.441753    0.552006
     magnetization/charge:    0.051727    0.068762    0.085924
     polar coord.: r, theta, phi [deg] :     0.781208   45.040569   53.047634

 ==============================================================================

     total cpu time spent up to now is        5.2 secs

     total energy              =     -55.86918237 Ry
     Harris-Foulkes estimate   =     -55.65618287 Ry
     estimated scf accuracy    <       0.16055203 Ry

     total magnetization       =    -0.78    -0.96    -1.18 Bohr mag/cell
     absolute magnetization    =     1.71 Bohr mag/cell
     Magnetic field            =  -0.0715409  -0.0940001  -0.1170410 Ry
     lambda                    =       0.50 Ry

     iteration # 10     ecut=    25.00 Ry     beta=0.30
     Davidson diagonalization with overlap
     ethr =  3.37E-05,  avg # of iterations =  1.7
      External magnetic field:      -0.00267     -0.00356     -0.00447

 ==============================================================================
     atom number    1 relative position :    0.0000   0.0000   0.0000
     charge :     6.416069
     magnetization :          0.309663    0.412615    0.516018
     magnetization/charge:    0.048264    0.064310    0.080426
     polar coord.: r, theta, phi [deg] :     0.729669   44.992898   53.112121

 ==============================================================================

     total cpu time spent up to now is        5.6 secs

     total energy              =     -55.27821069 Ry
     Harris-Foulkes estimate   =     -55.92610571 Ry
     estimated scf accuracy    <       0.34895372 Ry

     total magnetization       =    -1.39    -1.82    -2.26 Bohr mag/cell
     absolute magnetization    =     3.22 Bohr mag/cell
     Magnetic field            =  -0.0026686  -0.0035649  -0.0044662 Ry
     lambda                    =       0.50 Ry

     iteration # 11     ecut=    25.00 Ry     beta=0.30
     Davidson diagonalization with overlap
     ethr =  3.37E-05,  avg # of iterations =  1.2
      External magnetic field:       0.02313      0.03101      0.03870

 ==============================================================================
     atom number    1 relative position :    0.0000   0.0000   0.0000
     charge :     6.420424
     magnetization :          0.234181    0.312007    0.390227
     magnetization/charge:    0.036474    0.048596    0.060779
     polar coord.: r, theta, phi [deg] :     0.551785   44.991664   53.109498

 ==============================================================================

     total cpu time spent up to now is        5.9 secs

     total energy              =     -55.55076139 Ry
     Harris-Foulkes estimate   =     -55.54455977 Ry
     estimated scf accuracy    <       0.00238258 Ry

     total magnetization       =     0.34     0.45     0.57 Bohr mag/cell
     absolute magnetization    =     0.83 Bohr mag/cell
     Magnetic field            =   0.0231300   0.0310070   0.0387023 Ry
     lambda                    =       0.50 Ry

     iteration # 12     ecut=    25.00 Ry     beta=0.30
     Davidson diagonalization with overlap
     ethr =  2.98E-05,  avg # of iterations =  1.4
      External magnetic field:       0.02685      0.03558      0.04472

 ==============================================================================
     atom number    1 relative position :    0.0000   0.0000   0.0000
     charge :     6.421618
     magnetization :          0.238092    0.317519    0.396847
     magnetization/charge:    0.037077    0.049445    0.061799
     polar coord.: r, theta, phi [deg] :     0.561244   45.001701   53.135540

 ==============================================================================

     total cpu time spent up to now is        6.3 secs

     total energy              =     -55.59907055 Ry
     Harris-Foulkes estimate   =     -55.58730262 Ry
     estimated scf accuracy    <       0.05335101 Ry

     total magnetization       =     0.82     1.09     1.36 Bohr mag/cell
     absolute magnetization    =     1.93 Bohr mag/cell
     Magnetic field            =   0.0268471   0.0355772   0.0447198 Ry
     lambda                    =       0.50 Ry

     iteration # 13     ecut=    25.00 Ry     beta=0.30
     Davidson diagonalization with overlap
     ethr =  2.98E-05,  avg # of iterations =  1.0
      External magnetic field:      -0.00483     -0.01315     -0.00769

 ==============================================================================
     atom number    1 relative position :    0.0000   0.0000   0.0000
     charge :     6.398695
     magnetization :          0.299340    0.405421    0.498607
     magnetization/charge:    0.046781    0.063360    0.077923
     polar coord.: r, theta, phi [deg] :     0.708929   45.305668   53.559918

 ==============================================================================

     total cpu time spent up to now is        6.6 secs

     total energy              =     -55.50151466 Ry
     Harris-Foulkes estimate   =     -55.59960381 Ry
     estimated scf accuracy    <       0.06121387 Ry

     total magnetization       =     0.87     1.16     1.45 Bohr mag/cell
     absolute magnetization    =     2.05 Bohr mag/cell
     Magnetic field            =  -0.0048331  -0.0131540  -0.0076875 Ry
     lambda                    =       0.50 Ry

     iteration # 14     ecut=    25.00 Ry     beta=0.30
     Davidson diagonalization with overlap
     ethr =  2.98E-05,  avg # of iterations =  4.5
      External magnetic field:      -0.01355     -0.00193     -0.02473

 ==============================================================================
     atom number    1 relative position :    0.0000   0.0000   0.0000
     charge :     6.388987
     magnetization :          0.327512    0.421317    0.548139
     magnetization/charge:    0.051262    0.065944    0.085794
     polar coord.: r, theta, phi [deg] :     0.765003   44.232112   52.140216

 ==============================================================================

     total cpu time spent up to now is        7.1 secs

     total energy              =     -55.54402051 Ry
     Harris-Foulkes estimate   =     -55.54629570 Ry
     estimated scf accuracy    <       0.00348400 Ry

     total magnetization       =     0.28     0.12     0.48 Bohr mag/cell
     absolute magnetization    =     0.62 Bohr mag/cell
     Magnetic field            =  -0.0135496  -0.0019308  -0.0247309 Ry
     lambda                    =       0.50 Ry

     iteration # 15     ecut=    25.00 Ry     beta=0.30
     Davidson diagonalization with overlap
     ethr =  2.98E-05,  avg # of iterations =  3.5
      External magnetic field:      -0.00845     -0.01089     -0.01381

 ==============================================================================
     atom number    1 relative position :    0.0000   0.0000   0.0000
     charge :     6.402992
     magnetization :          0.308075    0.410610    0.513294
     magnetization/charge:    0.048114    0.064128    0.080165
     polar coord.: r, theta, phi [deg] :     0.725935   45.002168   53.119678

 ==============================================================================

     total cpu time spent up to now is        7.5 secs

     total energy              =     -55.54203361 Ry
     Harris-Foulkes estimate   =     -55.55253388 Ry
     estimated scf accuracy    <       0.02037018 Ry

     total magnetization       =     0.01     0.62    -0.06 Bohr mag/cell
     absolute magnetization    =     0.71 Bohr mag/cell
     Magnetic field            =  -0.0084463  -0.0108947  -0.0138111 Ry
     lambda                    =       0.50 Ry

     iteration # 16     ecut=    25.00 Ry     beta=0.30
     Davidson diagonalization with overlap
     ethr =  2.98E-05,  avg # of iterations =  3.9
      External magnetic field:       0.00089      0.00115      0.00147

 ==============================================================================
     atom number    1 relative position :    0.0000   0.0000   0.0000
     charge :     6.407166
     magnetization :          0.295225    0.393805    0.492154
     magnetization/charge:    0.046077    0.061463    0.076813
     polar coord.: r, theta, phi [deg] :     0.696028   45.001447   53.142111

 ==============================================================================

     total cpu time spent up to now is        8.0 secs

     total energy              =     -55.53935319 Ry
     Harris-Foulkes estimate   =     -55.54667209 Ry
     estimated scf accuracy    <       0.00334745 Ry

     total magnetization       =     0.15     0.22     0.26 Bohr mag/cell
     absolute magnetization    =     0.44 Bohr mag/cell
     Magnetic field            =   0.0008881   0.0011455   0.0014737 Ry
     lambda                    =       0.50 Ry

     iteration # 17     ecut=    25.00 Ry     beta=0.30
     Davidson diagonalization with overlap
     ethr =  2.98E-05,  avg # of iterations =  1.0
      External magnetic field:       0.00110     -0.00206     -0.00389

 ==============================================================================
     atom number    1 relative position :    0.0000   0.0000   0.0000
     charge :     6.405905
     magnetization :          0.297714    0.400363    0.501688
     magnetization/charge:    0.046475    0.062499    0.078316
     polar coord.: r, theta, phi [deg] :     0.707542   44.841708   53.365108

 ==============================================================================

     total cpu time spent up to now is        8.3 secs

     total energy              =     -55.54493677 Ry
     Harris-Foulkes estimate   =     -55.54664920 Ry
     estimated scf accuracy    <       0.00457244 Ry

     total magnetization       =     0.46     0.61     0.76 Bohr mag/cell
     absolute magnetization    =     1.09 Bohr mag/cell
     Magnetic field            =   0.0011012  -0.0020620  -0.0038894 Ry
     lambda                    =       0.50 Ry

     iteration # 18     ecut=    25.00 Ry     beta=0.30
     Davidson diagonalization with overlap
     ethr =  2.98E-05,  avg # of iterations =  1.0
      External magnetic field:       0.00570      0.00759      0.00958

 ==============================================================================
     atom number    1 relative position :    0.0000   0.0000   0.0000
     charge :     6.409891
     magnetization :          0.292114    0.389340    0.486567
     magnetization/charge:    0.045572    0.060741    0.075909
     polar coord.: r, theta, phi [deg] :     0.688232   45.010205   53.119861

 ==============================================================================

     total cpu time spent up to now is        8.6 secs

     total energy              =     -55.54826900 Ry
     Harris-Foulkes estimate   =     -55.54547861 Ry
     estimated scf accuracy    <       0.00206162 Ry

     total magnetization       =     0.48     0.51     0.60 Bohr mag/cell
     absolute magnetization    =     0.94 Bohr mag/cell
     Magnetic field            =   0.0057039   0.0075884   0.0095822 Ry
     lambda                    =       0.50 Ry

     iteration # 19     ecut=    25.00 Ry     beta=0.30
     Davidson diagonalization with overlap
     ethr =  2.58E-05,  avg # of iterations =  1.0
      External magnetic field:       0.00585      0.00740      0.00993

 ==============================================================================
     atom number    1 relative position :    0.0000   0.0000   0.0000
     charge :     6.411504
     magnetization :          0.290736    0.387892    0.484249
     magnetization/charge:    0.045346    0.060499    0.075528
     polar coord.: r, theta, phi [deg] :     0.685189   45.029951   53.147346

 ==============================================================================

     total cpu time spent up to now is        9.0 secs

     total energy              =     -55.55235377 Ry
     Harris-Foulkes estimate   =     -55.55228972 Ry
     estimated scf accuracy    <       0.01362028 Ry

     total magnetization       =     0.58     0.78     0.97 Bohr mag/cell
     absolute magnetization    =     1.38 Bohr mag/cell
     Magnetic field            =   0.0058522   0.0074014   0.0099328 Ry
     lambda                    =       0.50 Ry

     iteration # 20     ecut=    25.00 Ry     beta=0.30
     Davidson diagonalization with overlap
     ethr =  2.58E-05,  avg # of iterations =  1.0
      External magnetic field:      -0.00401     -0.00519     -0.00648

 ==============================================================================
     atom number    1 relative position :    0.0000   0.0000   0.0000
     charge :     6.409325
     magnetization :          0.311236    0.414619    0.518144
     magnetization/charge:    0.048560    0.064690    0.080842
     polar coord.: r, theta, phi [deg] :     0.732974   45.016178   53.106088

 ==============================================================================

     total cpu time spent up to now is        9.3 secs

     total energy              =     -55.53886831 Ry
     Harris-Foulkes estimate   =     -55.55236178 Ry
     estimated scf accuracy    <       0.01370799 Ry

     total magnetization       =     0.59     0.77     0.98 Bohr mag/cell
     absolute magnetization    =     1.38 Bohr mag/cell
     Magnetic field            =  -0.0040125  -0.0051863  -0.0064821 Ry
     lambda                    =       0.50 Ry

     iteration # 21     ecut=    25.00 Ry     beta=0.30
     Davidson diagonalization with overlap
     ethr =  2.58E-05,  avg # of iterations =  1.0
      External magnetic field:      -0.00296     -0.00379     -0.00471

 ==============================================================================
     atom number    1 relative position :    0.0000   0.0000   0.0000
     charge :     6.409509
     magnetization :          0.308289    0.410727    0.513275
     magnetization/charge:    0.048099    0.064081    0.080080
     polar coord.: r, theta, phi [deg] :     0.726079   45.015606   53.108370

 ==============================================================================

     total cpu time spent up to now is        9.6 secs

     total energy              =     -55.54492250 Ry
     Harris-Foulkes estimate   =     -55.54483039 Ry
     estimated scf accuracy    <       0.00019577 Ry

     total magnetization       =     0.32     0.43     0.54 Bohr mag/cell
     absolute magnetization    =     0.80 Bohr mag/cell
     Magnetic field            =  -0.0029594  -0.0037897  -0.0047055 Ry
     lambda                    =       0.50 Ry

     iteration # 22     ecut=    25.00 Ry     beta=0.30
     Davidson diagonalization with overlap
     ethr =  2.45E-06,  avg # of iterations =  1.0
      External magnetic field:      -0.00294     -0.00372     -0.00471

 ==============================================================================
     atom number    1 relative position :    0.0000   0.0000   0.0000
     charge :     6.409632
     magnetization :          0.309382    0.412161    0.515151
     magnetization/charge:    0.048268    0.064303    0.080371
     polar coord.: r, theta, phi [deg] :     0.728680   45.011472   53.106851

 ==============================================================================

     total cpu time spent up to now is       10.0 secs

     total energy              =     -55.54500260 Ry
     Harris-Foulkes estimate   =     -55.54500739 Ry
     estimated scf accuracy    <       0.00058451 Ry

     total magnetization       =     0.35     0.48     0.60 Bohr mag/cell
     absolute magnetization    =     0.87 Bohr mag/cell
     Magnetic field            =  -0.0029382  -0.0037173  -0.0047141 Ry
     lambda                    =       0.50 Ry

     iteration # 23     ecut=    25.00 Ry     beta=0.30
     Davidson diagonalization with overlap
     ethr =  2.45E-06,  avg # of iterations =  1.0
      External magnetic field:      -0.00563     -0.00754     -0.00921

 ==============================================================================
     atom number    1 relative position :    0.0000   0.0000   0.0000
     charge :     6.411393
     magnetization :          0.314559    0.419365    0.523847
     magnetization/charge:    0.049063    0.065409    0.081706
     polar coord.: r, theta, phi [deg] :     0.741101   45.020807   53.127016

 ==============================================================================

     total cpu time spent up to now is       10.3 secs

     total energy              =     -55.54429625 Ry
     Harris-Foulkes estimate   =     -55.54500478 Ry
     estimated scf accuracy    <       0.00052100 Ry

     total magnetization       =     0.36     0.48     0.60 Bohr mag/cell
     absolute magnetization    =     0.88 Bohr mag/cell
     Magnetic field            =  -0.0056307  -0.0075379  -0.0092083 Ry
     lambda                    =       0.50 Ry

     iteration # 24     ecut=    25.00 Ry     beta=0.30
     Davidson diagonalization with overlap
     ethr =  2.45E-06,  avg # of iterations =  1.0
      External magnetic field:      -0.00647     -0.00848     -0.01069

 ==============================================================================
     atom number    1 relative position :    0.0000   0.0000   0.0000
     charge :     6.412476
     magnetization :          0.316386    0.421727    0.527095
     magnetization/charge:    0.049339    0.065767    0.082198
     polar coord.: r, theta, phi [deg] :     0.745508   45.006432   53.122143

 ==============================================================================

     total cpu time spent up to now is       10.6 secs

     total energy              =     -55.54506194 Ry
     Harris-Foulkes estimate   =     -55.54489734 Ry
     estimated scf accuracy    <       0.00019710 Ry

     total magnetization       =     0.27     0.36     0.46 Bohr mag/cell
     absolute magnetization    =     0.69 Bohr mag/cell
     Magnetic field            =  -0.0064651  -0.0084843  -0.0106903 Ry
     lambda                    =       0.50 Ry

     iteration # 25     ecut=    25.00 Ry     beta=0.30
     Davidson diagonalization with overlap
     ethr =  2.45E-06,  avg # of iterations =  1.0
      External magnetic field:      -0.00476     -0.00673     -0.00779

 ==============================================================================
     atom number    1 relative position :    0.0000   0.0000   0.0000
     charge :     6.412105
     magnetization :          0.312705    0.417293    0.520922
     magnetization/charge:    0.048768    0.065079    0.081240
     polar coord.: r, theta, phi [deg] :     0.737074   45.029416   53.153439

 ==============================================================================

     total cpu time spent up to now is       10.9 secs

     total energy              =     -55.54459118 Ry
     Harris-Foulkes estimate   =     -55.54511674 Ry
     estimated scf accuracy    <       0.00061197 Ry

     total magnetization       =     0.24     0.33     0.41 Bohr mag/cell
     absolute magnetization    =     0.64 Bohr mag/cell
     Magnetic field            =  -0.0047558  -0.0067329  -0.0077858 Ry
     lambda                    =       0.50 Ry

     iteration # 26     ecut=    25.00 Ry     beta=0.30
     Davidson diagonalization with overlap
     ethr =  2.45E-06,  avg # of iterations =  1.0
      External magnetic field:      -0.00430     -0.00596     -0.00749

 ==============================================================================
     atom number    1 relative position :    0.0000   0.0000   0.0000
     charge :     6.412273
     magnetization :          0.312269    0.416575    0.520702
     magnetization/charge:    0.048699    0.064965    0.081204
     polar coord.: r, theta, phi [deg] :     0.736327   44.995550   53.144418

 ==============================================================================

     total cpu time spent up to now is       11.3 secs

     total energy              =     -55.54476907 Ry
     Harris-Foulkes estimate   =     -55.54479887 Ry
     estimated scf accuracy    <       0.00001915 Ry

     total magnetization       =     0.30     0.38     0.50 Bohr mag/cell
     absolute magnetization    =     0.74 Bohr mag/cell
     Magnetic field            =  -0.0042978  -0.0059627  -0.0074882 Ry
     lambda                    =       0.50 Ry

     iteration # 27     ecut=    25.00 Ry     beta=0.30
     Davidson diagonalization with overlap
     ethr =  2.39E-07,  avg # of iterations =  1.0
      External magnetic field:      -0.00456     -0.00603     -0.00747

 ==============================================================================
     atom number    1 relative position :    0.0000   0.0000   0.0000
     charge :     6.412274
     magnetization :          0.312530    0.416653    0.520696
     magnetization/charge:    0.048739    0.064977    0.081203
     polar coord.: r, theta, phi [deg] :     0.736477   45.007946   53.126553

 ==============================================================================

     total cpu time spent up to now is       11.6 secs

     total energy              =     -55.54478200 Ry
     Harris-Foulkes estimate   =     -55.54478306 Ry
     estimated scf accuracy    <       0.00000336 Ry

     total magnetization       =     0.31     0.41     0.51 Bohr mag/cell
     absolute magnetization    =     0.77 Bohr mag/cell
     Magnetic field            =  -0.0045626  -0.0060330  -0.0074706 Ry
     lambda                    =       0.50 Ry

     iteration # 28     ecut=    25.00 Ry     beta=0.30
     Davidson diagonalization with overlap
     ethr =  4.20E-08,  avg # of iterations =  1.0
      External magnetic field:      -0.00503     -0.00673     -0.00840

 ==============================================================================
     atom number    1 relative position :    0.0000   0.0000   0.0000
     charge :     6.412420
     magnetization :          0.313446    0.417962    0.522407
     magnetization/charge:    0.048881    0.065180    0.081468
     polar coord.: r, theta, phi [deg] :     0.738817   45.001653   53.132359

 ==============================================================================

     total cpu time spent up to now is       11.9 secs

     total energy              =     -55.54479389 Ry
     Harris-Foulkes estimate   =     -55.54478330 Ry
     estimated scf accuracy    <       0.00000094 Ry

     total magnetization       =     0.30     0.41     0.51 Bohr mag/cell
     absolute magnetization    =     0.76 Bohr mag/cell
     Magnetic field            =  -0.0050343  -0.0067312  -0.0083954 Ry
     lambda                    =       0.50 Ry

     iteration # 29     ecut=    25.00 Ry     beta=0.30
     Davidson diagonalization with overlap
     ethr =  1.17E-08,  avg # of iterations =  1.1
      External magnetic field:      -0.00449     -0.00600     -0.00749

 ==============================================================================
     atom number    1 relative position :    0.0000   0.0000   0.0000
     charge :     6.412180
     magnetization :          0.312239    0.416331    0.520408
     magnetization/charge:    0.048695    0.064928    0.081159
     polar coord.: r, theta, phi [deg] :     0.735968   45.000011   53.130947

 ==============================================================================

     total cpu time spent up to now is       12.2 secs

     total energy              =     -55.54475933 Ry
     Harris-Foulkes estimate   =     -55.54481688 Ry
     estimated scf accuracy    <       0.00004190 Ry

     total magnetization       =     0.29     0.38     0.48 Bohr mag/cell
     absolute magnetization    =     0.73 Bohr mag/cell
     Magnetic field            =  -0.0044936  -0.0059969  -0.0074933 Ry
     lambda                    =       0.50 Ry

     iteration # 30     ecut=    25.00 Ry     beta=0.30
     Davidson diagonalization with overlap
     ethr =  1.17E-08,  avg # of iterations =  1.5
      External magnetic field:      -0.00454     -0.00606     -0.00757

 ==============================================================================
     atom number    1 relative position :    0.0000   0.0000   0.0000
     charge :     6.412158
     magnetization :          0.312303    0.416412    0.520505
     magnetization/charge:    0.048705    0.064941    0.081175
     polar coord.: r, theta, phi [deg] :     0.736110   45.000347   53.130635

 ==============================================================================

     total cpu time spent up to now is       12.6 secs

     total energy              =     -55.54478369 Ry
     Harris-Foulkes estimate   =     -55.54478293 Ry
     estimated scf accuracy    <       0.00000050 Ry

     total magnetization       =     0.31     0.41     0.51 Bohr mag/cell
     absolute magnetization    =     0.76 Bohr mag/cell
     Magnetic field            =  -0.0045403  -0.0060583  -0.0075673 Ry
     lambda                    =       0.50 Ry

     iteration # 31     ecut=    25.00 Ry     beta=0.30
     Davidson diagonalization with overlap
     ethr =  6.24E-09,  avg # of iterations =  1.0
      External magnetic field:      -0.00455     -0.00607     -0.00758

 ==============================================================================
     atom number    1 relative position :    0.0000   0.0000   0.0000
     charge :     6.412139
     magnetization :          0.312328    0.416441    0.520544
     magnetization/charge:    0.048709    0.064946    0.081181
     polar coord.: r, theta, phi [deg] :     0.736165   45.000302   53.130312

 ==============================================================================

     total cpu time spent up to now is       12.9 secs

     total energy              =     -55.54478404 Ry
     Harris-Foulkes estimate   =     -55.54478386 Ry
     estimated scf accuracy    <       0.00000001 Ry

     total magnetization       =     0.30     0.41     0.51 Bohr mag/cell
     absolute magnetization    =     0.76 Bohr mag/cell
     Magnetic field            =  -0.0045491  -0.0060672  -0.0075805 Ry
     lambda                    =       0.50 Ry

     iteration # 32     ecut=    25.00 Ry     beta=0.30
     Davidson diagonalization with overlap
     ethr =  1.32E-10,  avg # of iterations =  3.8
      External magnetic field:      -0.00455     -0.00601     -0.00763

 ==============================================================================
     atom number    1 relative position :    0.0000   0.0000   0.0000
     charge :     6.412141
     magnetization :          0.312333    0.416390    0.520598
     magnetization/charge:    0.048710    0.064938    0.081189
     polar coord.: r, theta, phi [deg] :     0.736176   44.995217   53.126506

 ==============================================================================

     total cpu time spent up to now is       13.4 secs

     End of self-consistent calculation

          k = 0.0000 0.0000 0.2500 (   148 PWs)   bands (ev):

     7.0426   7.2420  12.7594  12.7594  13.0874  13.0874  13.1316  13.4839
    13.7020  14.2562  14.6495  15.2721  36.1708  36.3037  38.5018  38.5021

          k = 0.0000-0.2500 0.5000 (   151 PWs)   bands (ev):

    10.0424  10.1070  12.0741  12.3671  12.4514  12.7149  14.0060  14.4647
    15.2626  15.6866  15.9319  16.3129  26.5052  26.5553  33.9091  34.1124

          k =-0.2500 0.2500 0.2500 (   159 PWs)   bands (ev):

     9.2500   9.4065  11.8380  11.8380  12.1232  12.1232  14.3919  14.3919
    14.9863  14.9863  15.4336  15.7935  31.7725  31.7725  31.8291  31.8291

          k =-0.2500 0.7500-0.2500 (   146 PWs)   bands (ev):

    11.3565  11.3565  11.6389  11.6389  11.8381  12.0834  14.8006  14.8006
    15.2401  15.2401  22.6998  22.6998  22.7908  22.7908  25.2067  25.2215

          k = 0.5000-0.5000 0.2500 (   150 PWs)   bands (ev):

    10.5873  10.7503  11.3660  11.6097  12.9468  13.0623  14.5329  14.6519
    15.1121  15.2882  19.4975  19.6164  23.3528  23.4708  29.5319  29.5952

          k = 0.0000 0.0000 0.7500 (   144 PWs)   bands (ev):

    10.4085  10.5101  10.6723  10.8527  14.5280  14.5280  14.8952  14.8952
    15.1234  15.5461  20.2841  20.3239  27.6812  27.6812  27.7979  27.7979

          k = 0.2500 0.0000 0.0000 (   148 PWs)   bands (ev):

     7.0426   7.2420  12.7594  12.7594  13.0874  13.0874  13.1316  13.4839
    13.7020  14.2562  14.6496  15.2721  36.1708  36.3037  38.5017  38.5018

          k = 0.0000 0.2500 0.0000 (   148 PWs)   bands (ev):

     7.0426   7.2420  12.7594  12.7594  13.0874  13.0874  13.1316  13.4839
    13.7020  14.2562  14.6495  15.2721  36.1708  36.3037  38.5017  38.5017

          k = 0.0000-0.2500-0.5000 (   151 PWs)   bands (ev):

    10.0424  10.1070  12.0741  12.3671  12.4514  12.7149  14.0060  14.4647
    15.2626  15.6866  15.9319  16.3129  26.5052  26.5553  33.9091  34.1124

          k =-0.2500 0.0000-0.5000 (   151 PWs)   bands (ev):

    10.0424  10.1071  12.0741  12.3671  12.4514  12.7149  14.0060  14.4647
    15.2626  15.6866  15.9319  16.3129  26.5052  26.5553  33.9091  34.1124

          k = 0.2500 0.0000-0.5000 (   151 PWs)   bands (ev):

    10.0424  10.1071  12.0741  12.3671  12.4514  12.7149  14.0060  14.4647
    15.2626  15.6866  15.9319  16.3129  26.5052  26.5553  33.9091  34.1124

          k = 0.5000 0.2500 0.0000 (   151 PWs)   bands (ev):

    10.0424  10.1071  12.0741  12.3671  12.4514  12.7149  14.0060  14.4647
    15.2626  15.6866  15.9320  16.3129  26.5052  26.5553  33.9091  34.1124

          k =-0.5000 0.2500 0.0000 (   151 PWs)   bands (ev):

    10.0424  10.1071  12.0741  12.3671  12.4514  12.7149  14.0060  14.4647
    15.2626  15.6866  15.9320  16.3129  26.5052  26.5553  33.9091  34.1124

          k = 0.0000 0.5000-0.2500 (   151 PWs)   bands (ev):

    10.0424  10.1070  12.0741  12.3671  12.4514  12.7149  14.0060  14.4647
    15.2626  15.6866  15.9319  16.3129  26.5052  26.5553  33.9091  34.1124

          k = 0.0000 0.5000 0.2500 (   151 PWs)   bands (ev):

    10.0424  10.1070  12.0741  12.3671  12.4514  12.7149  14.0060  14.4647
    15.2626  15.6866  15.9319  16.3129  26.5052  26.5553  33.9091  34.1124

          k =-0.2500 0.5000 0.0000 (   151 PWs)   bands (ev):

    10.0424  10.1071  12.0741  12.3671  12.4514  12.7149  14.0060  14.4647
    15.2626  15.6866  15.9320  16.3129  26.5052  26.5553  33.9091  34.1124

          k = 0.2500 0.5000 0.0000 (   151 PWs)   bands (ev):

    10.0424  10.1071  12.0741  12.3671  12.4514  12.7149  14.0060  14.4647
    15.2626  15.6866  15.9319  16.3129  26.5052  26.5553  33.9091  34.1124

          k = 0.5000 0.0000-0.2500 (   151 PWs)   bands (ev):

    10.0424  10.1071  12.0741  12.3671  12.4514  12.7149  14.0060  14.4647
    15.2626  15.6866  15.9320  16.3129  26.5052  26.5553  33.9091  34.1124

          k = 0.5000 0.0000 0.2500 (   151 PWs)   bands (ev):

    10.0424  10.1071  12.0741  12.3671  12.4514  12.7149  14.0060  14.4647
    15.2626  15.6866  15.9320  16.3129  26.5052  26.5553  33.9091  34.1124

          k = 0.2500 0.2500-0.2500 (   159 PWs)   bands (ev):

     9.2500   9.4066  11.8380  11.8380  12.1232  12.1232  14.3919  14.3919
    14.9863  14.9863  15.4336  15.7935  31.7725  31.7725  31.8291  31.8291

          k =-0.2500-0.2500-0.2500 (   159 PWs)   bands (ev):

     9.2500   9.4065  11.8380  11.8380  12.1232  12.1232  14.3919  14.3919
    14.9863  14.9863  15.4336  15.7935  31.7725  31.7725  31.8291  31.8291

          k =-0.2500 0.2500-0.2500 (   159 PWs)   bands (ev):

     9.2500   9.4065  11.8380  11.8380  12.1232  12.1232  14.3919  14.3919
    14.9863  14.9863  15.4336  15.7935  31.7725  31.7725  31.8291  31.8291

          k = 0.2500 0.7500 0.2500 (   146 PWs)   bands (ev):

    11.3565  11.3565  11.6389  11.6389  11.8381  12.0834  14.8006  14.8006
    15.2401  15.2401  22.6998  22.6998  22.7908  22.7908  25.2067  25.2215

          k =-0.2500-0.7500 0.2500 (   146 PWs)   bands (ev):

    11.3565  11.3565  11.6389  11.6389  11.8381  12.0834  14.8006  14.8006
    15.2401  15.2401  22.6998  22.6998  22.7908  22.7908  25.2067  25.2215

          k = 0.7500-0.2500 0.2500 (   146 PWs)   bands (ev):

    11.3565  11.3565  11.6389  11.6389  11.8381  12.0834  14.8006  14.8006
    15.2401  15.2401  22.6998  22.6998  22.7908  22.7908  25.2067  25.2215

          k =-0.5000-0.5000-0.2500 (   150 PWs)   bands (ev):

    10.5873  10.7503  11.3660  11.6097  12.9468  13.0623  14.5329  14.6519
    15.1121  15.2882  19.4975  19.6164  23.3528  23.4708  29.5319  29.5952

          k = 0.2500 0.5000 0.5000 (   150 PWs)   bands (ev):

    10.5873  10.7503  11.3660  11.6097  12.9468  13.0623  14.5329  14.6519
    15.1121  15.2882  19.4975  19.6164  23.3528  23.4708  29.5319  29.5952

          k =-0.2500 0.5000-0.5000 (   150 PWs)   bands (ev):

    10.5873  10.7503  11.3660  11.6097  12.9468  13.0623  14.5329  14.6519
    15.1121  15.2882  19.4975  19.6164  23.3528  23.4708  29.5319  29.5952

          k =-0.5000 0.2500-0.5000 (   150 PWs)   bands (ev):

    10.5873  10.7503  11.3660  11.6097  12.9468  13.0623  14.5329  14.6519
    15.1121  15.2882  19.4975  19.6164  23.3528  23.4708  29.5319  29.5952

          k =-0.5000-0.2500 0.5000 (   150 PWs)   bands (ev):

    10.5873  10.7503  11.3660  11.6097  12.9468  13.0623  14.5329  14.6519
    15.1121  15.2882  19.4975  19.6164  23.3528  23.4708  29.5319  29.5952

          k = 0.7500 0.0000 0.0000 (   144 PWs)   bands (ev):

    10.4085  10.5101  10.6723  10.8527  14.5280  14.5280  14.8952  14.8952
    15.1234  15.5461  20.2841  20.3238  27.6812  27.6812  27.7979  27.7979

          k = 0.0000 0.7500 0.0000 (   144 PWs)   bands (ev):

    10.4085  10.5101  10.6723  10.8527  14.5280  14.5280  14.8952  14.8952
    15.1234  15.5461  20.2841  20.3238  27.6812  27.6812  27.7979  27.7979

     the Fermi energy is    14.8545 ev

!    total energy              =     -55.54478414 Ry
     Harris-Foulkes estimate   =     -55.54478405 Ry
     estimated scf accuracy    <          4.4E-10 Ry

     The total energy is the sum of the following terms:

     one-electron contribution =       8.97517686 Ry
     hartree contribution      =       6.02997411 Ry
     xc contribution           =     -25.89292220 Ry
     ewald contribution        =     -44.64461207 Ry
     smearing contrib. (-TS)   =      -0.01240084 Ry

     total magnetization       =     0.30     0.41     0.51 Bohr mag/cell
     absolute magnetization    =     0.76 Bohr mag/cell
     Magnetic field            =  -0.0045526  -0.0060118  -0.0076338 Ry
     lambda                    =       0.50 Ry

     convergence has been achieved in  32 iterations

     Writing output data file pwscf.save
 
     init_run     :      0.43s CPU      0.44s WALL (       1 calls)
     electrons    :     12.50s CPU     12.90s WALL (       1 calls)

     Called by init_run:
     wfcinit      :      0.10s CPU      0.10s WALL (       1 calls)
     potinit      :      0.01s CPU      0.01s WALL (       1 calls)

     Called by electrons:
     c_bands      :      9.31s CPU      9.62s WALL (      32 calls)
     sum_band     :      2.53s CPU      2.61s WALL (      32 calls)
     v_of_rho     :      0.24s CPU      0.23s WALL (      33 calls)
     newd         :      0.28s CPU      0.29s WALL (      33 calls)
     mix_rho      :      0.10s CPU      0.09s WALL (      32 calls)

     Called by c_bands:
     init_us_2    :      0.12s CPU      0.11s WALL (    2080 calls)
     cegterg      :      8.93s CPU      9.24s WALL (    1024 calls)

     Called by sum_band:
     sum_band:bec :      0.01s CPU      0.01s WALL (    1024 calls)
     addusdens    :      0.76s CPU      0.77s WALL (      32 calls)

     Called by *egterg:
     h_psi        :      6.16s CPU      6.43s WALL (    3386 calls)
     s_psi        :      0.16s CPU      0.15s WALL (    3386 calls)
     g_psi        :      0.07s CPU      0.10s WALL (    2330 calls)
     cdiaghg      :      2.02s CPU      1.97s WALL (    3354 calls)

     Called by h_psi:
     add_vuspsi   :      0.17s CPU      0.16s WALL (    3386 calls)

     General routines
     calbec       :      0.12s CPU      0.13s WALL (    4410 calls)
     fft          :      0.24s CPU      0.25s WALL (    1067 calls)
     ffts         :      0.01s CPU      0.01s WALL (     260 calls)
     fftw         :      5.21s CPU      5.29s WALL (  186932 calls)
     interpolate  :      0.07s CPU      0.07s WALL (     260 calls)
     davcio       :      0.00s CPU      0.00s WALL (      32 calls)
 
     Parallel routines
     fft_scatter  :      0.46s CPU      0.51s WALL (  188259 calls)
 
     PWSCF        :    13.04s CPU        13.48s WALL

 
   This run was terminated on:  23:19:20  23Sep2015            

=------------------------------------------------------------------------------=
   JOB DONE.
=------------------------------------------------------------------------------=
