
     Program PWSCF v.5.2.0 starts on 23Sep2015 at 23:30:44 

     This program is part of the open-source Quantum ESPRESSO suite
     for quantum simulation of materials; please cite
         "P. Giannozzi et al., J. Phys.:Condens. Matter 21 395502 (2009);
          URL http://www.quantum-espresso.org", 
     in publications or presentations arising from this work. More details at
     http://www.quantum-espresso.org/quote

     Parallel version (MPI), running on     1 processors
     Reading input from /home/yu/workspace/espresso/espresso-5.2.0/PW/tests/vdw4.in

     Current dimensions of program PWSCF are:
     Max number of different atomic species (ntypx) = 10
     Max number of k-points (npk) =  40000
     Max angular momentum in pseudopotentials (lmaxx) =  3

     IMPORTANT: XC functional enforced from input :
     Exchange-correlation      = VDW-DF-OB86 ( 1  4 24  0 1 0)
     Any further DFT definition will be discarded
     Please, verify this is what you really want

               file C.pbe-rrkjus.UPF: wavefunction(s)  2S 2P renormalized

     Subspace diagonalization in iterative solution of the eigenvalue problem:
     a serial algorithm will be used

 
     G-vector sticks info
     --------------------
     sticks:   dense  smooth     PW     G-vecs:    dense   smooth      PW
     Sum         265     187     61                 9583     5211    1107
 


     bravais-lattice index     =            4
     lattice parameter (alat)  =       4.6412  a.u.
     unit-cell volume          =     236.0493 (a.u.)^3
     number of atoms/cell      =            4
     number of atomic types    =            1
     number of electrons       =        16.00
     number of Kohn-Sham states=            8
     kinetic-energy cutoff     =      30.0000  Ry
     charge density cutoff     =     180.0000  Ry
     convergence threshold     =      1.0E-08
     mixing beta               =       0.7000
     number of iterations used =            8  plain     mixing
     Exchange-correlation      = VDW-DF-OB86 ( 1  4 24  0 1 0)
     nstep                     =           50


     celldm(1)=   4.641170  celldm(2)=   0.000000  celldm(3)=   2.726400
     celldm(4)=   0.000000  celldm(5)=   0.000000  celldm(6)=   0.000000

     crystal axes: (cart. coord. in units of alat)
               a(1) = (   1.000000   0.000000   0.000000 )  
               a(2) = (  -0.500000   0.866025   0.000000 )  
               a(3) = (   0.000000   0.000000   2.726400 )  

     reciprocal axes: (cart. coord. in units 2 pi/alat)
               b(1) = (  1.000000  0.577350  0.000000 )  
               b(2) = (  0.000000  1.154701  0.000000 )  
               b(3) = (  0.000000  0.000000  0.366784 )  


     PseudoPot. # 1 for C  read from file:
     /home/yu/workspace/espresso/espresso-5.2.0/pseudo/C.pbe-rrkjus.UPF
     MD5 check sum: 00fb224312de0c5b6853bd333518df6f
     Pseudo is Ultrasoft, Zval =  4.0
     Generated by new atomic code, or converted to UPF format
     Using radial grid of  627 points,  4 beta functions with: 
                l(1) =   0
                l(2) =   0
                l(3) =   1
                l(4) =   1
     Q(r) pseudized with 0 coefficients 


     vdW kernel table read from file vdW_kernel_table
     MD5 check sum: 3c9d25962a21c6a004b92d5f2b3728ae

     atomic species   valence    mass     pseudopotential
        C              4.00    12.00000     C ( 1.00)

     24 Sym. Ops., with inversion, found (12 have fractional translation)



   Cartesian axes

     site n.     atom                  positions (alat units)
         1           C   tau(   1) = (   0.0000000   0.0000000   0.0000000  )
         2           C   tau(   2) = (   0.0000000   0.5773503   0.0000000  )
         3           C   tau(   3) = (   0.0000000   0.0000000   1.3632000  )
         4           C   tau(   4) = (   0.5000000   0.2886751   1.3632000  )

     number of k points=    12
                       cart. coord. in units 2pi/alat
        k(    1) = (   0.1250000   0.2165064   0.0458480), wk =   0.1250000
        k(    2) = (   0.1250000   0.2165064   0.1375440), wk =   0.1250000
        k(    3) = (   0.1250000   0.5051815   0.0458480), wk =   0.2500000
        k(    4) = (   0.1250000   0.5051815   0.1375440), wk =   0.2500000
        k(    5) = (   0.1250000  -0.3608439   0.0458480), wk =   0.2500000
        k(    6) = (   0.1250000  -0.3608439   0.1375440), wk =   0.2500000
        k(    7) = (   0.1250000  -0.0721688   0.0458480), wk =   0.1250000
        k(    8) = (   0.1250000  -0.0721688   0.1375440), wk =   0.1250000
        k(    9) = (   0.3750000   0.6495191   0.0458480), wk =   0.1250000
        k(   10) = (   0.3750000   0.6495191   0.1375440), wk =   0.1250000
        k(   11) = (   0.3750000  -0.2165064   0.0458480), wk =   0.1250000
        k(   12) = (   0.3750000  -0.2165064   0.1375440), wk =   0.1250000

     Dense  grid:     9583 G-vectors     FFT dimensions: (  20,  20,  60)

     Smooth grid:     5211 G-vectors     FFT dimensions: (  18,  18,  45)

     Largest allocated arrays     est. size (Mb)     dimensions
        Kohn-Sham Wavefunctions         0.08 Mb     (     662,    8)
        NL pseudopotentials             0.32 Mb     (     662,   32)
        Each V/rho on FFT grid          0.37 Mb     (   24000)
        Each G-vector array             0.07 Mb     (    9583)
        G-vector shells                 0.07 Mb     (    9583)
     Largest temporary arrays     est. size (Mb)     dimensions
        Auxiliary wavefunctions         0.32 Mb     (     662,   32)
        Each subspace H/S matrix        0.02 Mb     (      32,   32)
        Each <psi_i|beta_j> matrix      0.00 Mb     (      32,    8)
        Arrays for rho mixing           2.93 Mb     (   24000,    8)

     Initial potential from superposition of free atoms

     starting charge   15.99979, renormalised to   16.00000


     ************************************************************************
     *
     * You are using vdW-DF for exchange-correlation in this calculation.
     * Please cite the following three references that made this development
     * possible:
     *
     *   M. Dion, H. Rydberg, E. Schroder, D. C. Langreth, and
     *   B. I. Lundqvist, Phys. Rev. Lett. 92, 246401 (2004).
     *
     *   T. Thonhauser, V. R. Cooper, S. Li, A. Puzder, P. Hyldgaard, and
     *   D. C. Langreth, Phys. Rev. B 76, 125112 (2007).
     *
     *   G. Roman-Perez and J. M. Soler, Phys. Rev. Lett. 103, 096102 (2009).
     *
     *
     * If you are using vdW-DF2, please also cite:
     *
     *   K. Lee, E. D. Murray, L. Kong, B. I. Lundqvist, and
     *   D. C. Langreth, Phys. Rev. B 82, 081101(R) (2010).
     *
     *
     * If you are calculating the stress with vdW-DF, please also cite:
     *
     *   R. Sabatini, E. Kucukbenli, B. Kolb, T. Thonhauser, and
     *   S. de Gironcoli, J. Phys.: Condens. Matter 24, 424209 (2012).
     *
     ************************************************************************

     Carrying out vdW-DF run using the following parameters:

     Nqs =      20    Nr_points =    1024   r_max =   100.000
     q_mesh =
               0.00001000     0.04494208     0.09755937     0.15916263
               0.23128650     0.31572767     0.41458969     0.53033537
               0.66584808     0.82450364     1.01025438     1.22772762
               1.48234092     1.78043706     2.12944203     2.53805004
               3.01644009     3.57652955     4.23227104     5.00000000

     Gradients computed in reciprocal space

     ************************************************************************


     Starting wfc are   16 randomized atomic wfcs

     total cpu time spent up to now is        0.7 secs

     per-process dynamical memory:    45.1 Mb

     Self-consistent Calculation

     iteration #  1     ecut=    30.00 Ry     beta=0.70
     Davidson diagonalization with overlap
     ethr =  1.00E-02,  avg # of iterations =  2.0

     total cpu time spent up to now is        1.0 secs

     total energy              =     -45.57581268 Ry
     Harris-Foulkes estimate   =     -45.80874510 Ry
     estimated scf accuracy    <       0.39964703 Ry

     iteration #  2     ecut=    30.00 Ry     beta=0.70
     Davidson diagonalization with overlap
     ethr =  2.50E-03,  avg # of iterations =  2.0

     total cpu time spent up to now is        1.4 secs

     total energy              =     -45.63712117 Ry
     Harris-Foulkes estimate   =     -45.63701452 Ry
     estimated scf accuracy    <       0.00521558 Ry

     iteration #  3     ecut=    30.00 Ry     beta=0.70
     Davidson diagonalization with overlap
     ethr =  3.26E-05,  avg # of iterations =  2.2

     total cpu time spent up to now is        1.7 secs

     total energy              =     -45.63779699 Ry
     Harris-Foulkes estimate   =     -45.63771426 Ry
     estimated scf accuracy    <       0.00034625 Ry

     iteration #  4     ecut=    30.00 Ry     beta=0.70
     Davidson diagonalization with overlap
     ethr =  2.16E-06,  avg # of iterations =  1.9

     total cpu time spent up to now is        1.9 secs

     total energy              =     -45.63783847 Ry
     Harris-Foulkes estimate   =     -45.63783729 Ry
     estimated scf accuracy    <       0.00000157 Ry

     iteration #  5     ecut=    30.00 Ry     beta=0.70
     Davidson diagonalization with overlap
     ethr =  9.82E-09,  avg # of iterations =  3.4

     total cpu time spent up to now is        2.3 secs

     total energy              =     -45.63784082 Ry
     Harris-Foulkes estimate   =     -45.63784084 Ry
     estimated scf accuracy    <       0.00000012 Ry

     iteration #  6     ecut=    30.00 Ry     beta=0.70
     Davidson diagonalization with overlap
     ethr =  7.42E-10,  avg # of iterations =  3.4

     total cpu time spent up to now is        2.7 secs

     total energy              =     -45.63784085 Ry
     Harris-Foulkes estimate   =     -45.63784090 Ry
     estimated scf accuracy    <       0.00000015 Ry

     iteration #  7     ecut=    30.00 Ry     beta=0.70
     Davidson diagonalization with overlap
     ethr =  7.42E-10,  avg # of iterations =  2.5

     total cpu time spent up to now is        3.0 secs

     End of self-consistent calculation

          k = 0.1250 0.2165 0.0458 (   646 PWs)   bands (ev):

   -11.5460 -11.2788  -0.1688   0.7705   0.8112   1.6125   1.8346   1.8633

          k = 0.1250 0.2165 0.1375 (   654 PWs)   bands (ev):

   -11.4710 -11.3604   0.2914   0.7820   0.8001   1.0198   1.8423   1.8542

          k = 0.1250 0.5052 0.0458 (   662 PWs)   bands (ev):

    -7.9880  -7.7876  -5.0738  -4.9226  -0.4749  -0.3991   3.8766   5.0235

          k = 0.1250 0.5052 0.1375 (   662 PWs)   bands (ev):

    -7.9309  -7.8480  -5.0309  -4.9682  -0.4531  -0.4217   4.2061   4.6844

          k = 0.1250-0.3608 0.0458 (   661 PWs)   bands (ev):

   -10.0853  -9.8434  -2.0452  -1.9412   0.2991   0.3625   1.5727   3.2000

          k = 0.1250-0.3608 0.1375 (   657 PWs)   bands (ev):

   -10.0171  -9.9169  -2.0151  -1.9720   0.3172   0.3435   1.9987   2.6649

          k = 0.1250-0.0722 0.0458 (   639 PWs)   bands (ev):

   -12.2879 -12.0077  -1.0688   0.7739   2.5620   2.6067   3.2352   3.2677

          k = 0.1250-0.0722 0.1375 (   635 PWs)   bands (ev):

   -12.2093 -12.0934  -0.5941   0.1576   2.5750   2.5936   3.2447   3.2582

          k = 0.3750 0.6495 0.0458 (   647 PWs)   bands (ev):

    -6.3491  -6.2522  -5.4530  -5.4104  -2.7981  -2.7009   5.6161   6.2395

          k = 0.3750 0.6495 0.1375 (   662 PWs)   bands (ev):

    -6.3171  -6.2766  -5.4466  -5.4285  -2.7712  -2.7308   5.8574   6.1302

          k = 0.3750-0.2165 0.0458 (   658 PWs)   bands (ev):

    -9.3680  -9.1387  -3.7595  -3.6182   0.9062   0.9563   2.3778   3.8709

          k = 0.3750-0.2165 0.1375 (   656 PWs)   bands (ev):

    -9.3031  -9.2082  -3.7190  -3.6606   0.9208   0.9415   2.7760   3.3897

     highest occupied level (ev):     6.2395

!    total energy              =     -45.63784087 Ry
     Harris-Foulkes estimate   =     -45.63784087 Ry
     estimated scf accuracy    <          2.1E-09 Ry

     The total energy is the sum of the following terms:

     one-electron contribution =     -11.04462344 Ry
     hartree contribution      =      13.44911041 Ry
     xc contribution           =     -14.13319388 Ry
     ewald contribution        =     -33.90913395 Ry

     convergence has been achieved in   7 iterations

     Forces acting on atoms (Ry/au):

     atom    1 type  1   force =     0.00000000    0.00000000    0.00000000
     atom    2 type  1   force =     0.00000000    0.00000000    0.00000000
     atom    3 type  1   force =     0.00000000    0.00000000    0.00000000
     atom    4 type  1   force =     0.00000000    0.00000000    0.00000000

     Total force =     0.000000     Total SCF correction =     0.000000


     entering subroutine stress ...

          total   stress  (Ry/bohr**3)                   (kbar)     P=   17.60
   0.00021142   0.00000000   0.00000000         31.10      0.00      0.00
   0.00000000   0.00021142   0.00000000          0.00     31.10      0.00
   0.00000000   0.00000000  -0.00006390          0.00      0.00     -9.40


     BFGS Geometry Optimization

     number of scf cycles    =   1
     number of bfgs steps    =   0

     enthalpy new            =     -45.6378408658 Ry

     new trust radius        =       0.0049086220 bohr
     new conv_thr            =       0.0000000100 Ry

     new unit-cell volume =    235.67218 a.u.^3 (    34.92301 Ang^3 )

CELL_PARAMETERS (alat=  4.64117000)
   1.000000000   0.000000000   0.000000000
  -0.500000000   0.866025404   0.000000000
   0.000000000   0.000000000   2.722044702

ATOMIC_POSITIONS (alat)
C        0.000000000   0.000000000   0.000000000
C        0.000000000   0.577350269   0.000000000
C        0.000000000   0.000000000   1.361022351
C        0.500000000   0.288675135   1.361022351



     Writing output data file pwscf.save
     NEW-OLD atomic charge density approx. for the potential
     extrapolated charge   15.97440, renormalised to   16.00000

     total cpu time spent up to now is        4.4 secs

     per-process dynamical memory:    47.8 Mb

     Self-consistent Calculation

     iteration #  1     ecut=    30.00 Ry     beta=0.70
     Davidson diagonalization with overlap
     ethr =  1.00E-06,  avg # of iterations =  2.0

     Threshold (ethr) on eigenvalues was too large:
     Diagonalizing with lowered threshold

     Davidson diagonalization with overlap
     ethr =  6.74E-08,  avg # of iterations =  1.0

     total cpu time spent up to now is        4.9 secs

     total energy              =     -45.63783772 Ry
     Harris-Foulkes estimate   =     -45.65134861 Ry
     estimated scf accuracy    <       0.00001086 Ry

     iteration #  2     ecut=    30.00 Ry     beta=0.70
     Davidson diagonalization with overlap
     ethr =  6.79E-08,  avg # of iterations =  3.3

     total cpu time spent up to now is        5.2 secs

     total energy              =     -45.63786560 Ry
     Harris-Foulkes estimate   =     -45.63787158 Ry
     estimated scf accuracy    <       0.00001588 Ry

     iteration #  3     ecut=    30.00 Ry     beta=0.70
     Davidson diagonalization with overlap
     ethr =  6.79E-08,  avg # of iterations =  1.8

     total cpu time spent up to now is        5.5 secs

     total energy              =     -45.63786330 Ry
     Harris-Foulkes estimate   =     -45.63786622 Ry
     estimated scf accuracy    <       0.00000438 Ry

     iteration #  4     ecut=    30.00 Ry     beta=0.70
     Davidson diagonalization with overlap
     ethr =  2.74E-08,  avg # of iterations =  2.0

     total cpu time spent up to now is        5.9 secs

     total energy              =     -45.63786417 Ry
     Harris-Foulkes estimate   =     -45.63786423 Ry
     estimated scf accuracy    <       0.00000010 Ry

     iteration #  5     ecut=    30.00 Ry     beta=0.70
     Davidson diagonalization with overlap
     ethr =  6.27E-10,  avg # of iterations =  2.5

     total cpu time spent up to now is        6.2 secs

     End of self-consistent calculation

          k = 0.1250 0.2165 0.0459 (   646 PWs)   bands (ev):

   -11.5293 -11.2587  -0.1569   0.7887   0.8301   1.6386   1.8530   1.8821

          k = 0.1250 0.2165 0.1378 (   654 PWs)   bands (ev):

   -11.4533 -11.3414   0.3068   0.8004   0.8188   1.0410   1.8607   1.8729

          k = 0.1250 0.5052 0.0459 (   662 PWs)   bands (ev):

    -7.9709  -7.7679  -5.0563  -4.9031  -0.4569  -0.3800   3.8898   5.0461

          k = 0.1250 0.5052 0.1378 (   662 PWs)   bands (ev):

    -7.9131  -7.8291  -5.0128  -4.9494  -0.4348  -0.4029   4.2221   4.7044

          k = 0.1250-0.3608 0.0459 (   661 PWs)   bands (ev):

   -10.0685  -9.8234  -2.0274  -1.9219   0.3172   0.3816   1.5849   3.2255

          k = 0.1250-0.3608 0.1378 (   657 PWs)   bands (ev):

    -9.9993  -9.8979  -1.9969  -1.9532   0.3356   0.3623   2.0142   2.6858

          k = 0.1250-0.0722 0.0459 (   639 PWs)   bands (ev):

   -12.2712 -11.9876  -1.0569   0.8004   2.5802   2.6257   3.2536   3.2866

          k = 0.1250-0.0722 0.1378 (   635 PWs)   bands (ev):

   -12.1918 -12.0744  -0.5787   0.1788   2.5935   2.6123   3.2632   3.2769

          k = 0.3750 0.6495 0.0459 (   647 PWs)   bands (ev):

    -6.3315  -6.2333  -5.4347  -5.3915  -2.7803  -2.6817   5.6301   6.2586

          k = 0.3750 0.6495 0.1378 (   662 PWs)   bands (ev):

    -6.2990  -6.2579  -5.4282  -5.4099  -2.7530  -2.7121   5.8739   6.1492

          k = 0.3750-0.2165 0.0459 (   658 PWs)   bands (ev):

    -9.3510  -9.1188  -3.7420  -3.5987   0.9244   0.9752   2.3903   3.8956

          k = 0.3750-0.2165 0.1378 (   656 PWs)   bands (ev):

    -9.2854  -9.1893  -3.7010  -3.6417   0.9392   0.9603   2.7917   3.4103

     highest occupied level (ev):     6.2586

!    total energy              =     -45.63786419 Ry
     Harris-Foulkes estimate   =     -45.63786420 Ry
     estimated scf accuracy    <          4.0E-09 Ry

     The total energy is the sum of the following terms:

     one-electron contribution =     -10.92048565 Ry
     hartree contribution      =      13.39793772 Ry
     xc contribution           =     -14.13352712 Ry
     ewald contribution        =     -33.98178915 Ry

     convergence has been achieved in   5 iterations

     Forces acting on atoms (Ry/au):

     atom    1 type  1   force =     0.00000000    0.00000000    0.00000000
     atom    2 type  1   force =     0.00000000    0.00000000    0.00000000
     atom    3 type  1   force =     0.00000000    0.00000000    0.00000000
     atom    4 type  1   force =     0.00000000    0.00000000    0.00000000

     Total force =     0.000000     Total SCF correction =     0.000000


     entering subroutine stress ...

          total   stress  (Ry/bohr**3)                   (kbar)     P=   17.77
   0.00021158   0.00000000   0.00000000         31.12      0.00      0.00
   0.00000000   0.00021158   0.00000000          0.00     31.12      0.00
   0.00000000   0.00000000  -0.00006079          0.00      0.00     -8.94


     number of scf cycles    =   2
     number of bfgs steps    =   1

     enthalpy old            =     -45.6378408658 Ry
     enthalpy new            =     -45.6378641936 Ry

     CASE: enthalpy_new < enthalpy_old


     WARNING: bfgs curvature condition failed, Theta= 0.841
     new trust radius        =       0.0054038020 bohr
     new conv_thr            =            1.0E-10 Ry

     new unit-cell volume =    235.25739 a.u.^3 (    34.86155 Ang^3 )

CELL_PARAMETERS (alat=  4.64117000)
   1.000000000   0.000000000   0.000000000
  -0.500000000   0.866025404   0.000000000
   0.000000000   0.000000000   2.717253875

ATOMIC_POSITIONS (alat)
C        0.000000000   0.000000000   0.000000000
C        0.000000000   0.577350269   0.000000000
C        0.000000000   0.000000000   1.358626937
C        0.500000000   0.288675135   1.358626937



     Writing output data file pwscf.save
     NEW-OLD atomic charge density approx. for the potential
     extrapolated charge   15.97179, renormalised to   16.00000

     total cpu time spent up to now is        7.6 secs

     per-process dynamical memory:    47.8 Mb

     Self-consistent Calculation

     iteration #  1     ecut=    30.00 Ry     beta=0.70
     Davidson diagonalization with overlap
     ethr =  1.00E-06,  avg # of iterations =  2.0

     Threshold (ethr) on eigenvalues was too large:
     Diagonalizing with lowered threshold

     Davidson diagonalization with overlap
     ethr =  8.22E-08,  avg # of iterations =  1.0

     total cpu time spent up to now is        8.1 secs

     total energy              =     -45.63785600 Ry
     Harris-Foulkes estimate   =     -45.65254768 Ry
     estimated scf accuracy    <       0.00001325 Ry

     iteration #  2     ecut=    30.00 Ry     beta=0.70
     Davidson diagonalization with overlap
     ethr =  8.28E-08,  avg # of iterations =  3.2

     total cpu time spent up to now is        8.4 secs

     total energy              =     -45.63788978 Ry
     Harris-Foulkes estimate   =     -45.63789702 Ry
     estimated scf accuracy    <       0.00001917 Ry

     iteration #  3     ecut=    30.00 Ry     beta=0.70
     Davidson diagonalization with overlap
     ethr =  8.28E-08,  avg # of iterations =  1.7

     total cpu time spent up to now is        8.7 secs

     total energy              =     -45.63788701 Ry
     Harris-Foulkes estimate   =     -45.63789052 Ry
     estimated scf accuracy    <       0.00000527 Ry

     iteration #  4     ecut=    30.00 Ry     beta=0.70
     Davidson diagonalization with overlap
     ethr =  3.29E-08,  avg # of iterations =  2.0

     total cpu time spent up to now is        9.0 secs

     total energy              =     -45.63788806 Ry
     Harris-Foulkes estimate   =     -45.63788813 Ry
     estimated scf accuracy    <       0.00000012 Ry

     iteration #  5     ecut=    30.00 Ry     beta=0.70
     Davidson diagonalization with overlap
     ethr =  7.44E-10,  avg # of iterations =  2.5

     total cpu time spent up to now is        9.4 secs

     total energy              =     -45.63788809 Ry
     Harris-Foulkes estimate   =     -45.63788809 Ry
     estimated scf accuracy    <          1.2E-09 Ry

     iteration #  6     ecut=    30.00 Ry     beta=0.70
     Davidson diagonalization with overlap
     ethr =  7.49E-12,  avg # of iterations =  2.1

     total cpu time spent up to now is        9.6 secs

     total energy              =     -45.63788809 Ry
     Harris-Foulkes estimate   =     -45.63788809 Ry
     estimated scf accuracy    <          1.3E-09 Ry

     iteration #  7     ecut=    30.00 Ry     beta=0.70
     Davidson diagonalization with overlap
     ethr =  7.49E-12,  avg # of iterations =  2.3

     total cpu time spent up to now is       10.0 secs

     End of self-consistent calculation

          k = 0.1250 0.2165 0.0460 (   646 PWs)   bands (ev):

   -11.5112 -11.2369  -0.1439   0.8085   0.8505   1.6673   1.8728   1.9025

          k = 0.1250 0.2165 0.1380 (   654 PWs)   bands (ev):

   -11.4342 -11.3208   0.3237   0.8203   0.8390   1.0642   1.8807   1.8930

          k = 0.1250 0.5052 0.0460 (   662 PWs)   bands (ev):

    -7.9523  -7.7465  -5.0374  -4.8820  -0.4374  -0.3593   3.9042   5.0708

          k = 0.1250 0.5052 0.1380 (   662 PWs)   bands (ev):

    -7.8937  -7.8085  -4.9933  -4.9289  -0.4150  -0.3826   4.2396   4.7263

          k = 0.1250-0.3608 0.0460 (   661 PWs)   bands (ev):

   -10.0502  -9.8018  -2.0082  -1.9011   0.3368   0.4021   1.5983   3.2534

          k = 0.1250-0.3608 0.1380 (   657 PWs)   bands (ev):

    -9.9802  -9.8774  -1.9772  -1.9329   0.3554   0.3825   2.0312   2.7086

          k = 0.1250-0.0722 0.0460 (   639 PWs)   bands (ev):

   -12.2532 -11.9657  -1.0441   0.8294   2.5999   2.6461   3.2734   3.3070

          k = 0.1250-0.0722 0.1380 (   635 PWs)   bands (ev):

   -12.1727 -12.0538  -0.5619   0.2021   2.6134   2.6326   3.2832   3.2971

          k = 0.3750 0.6495 0.0460 (   647 PWs)   bands (ev):

    -6.3124  -6.2127  -5.4148  -5.3711  -2.7610  -2.6609   5.6453   6.2793

          k = 0.3750 0.6495 0.1380 (   662 PWs)   bands (ev):

    -6.2793  -6.2377  -5.4084  -5.3898  -2.7333  -2.6918   5.8919   6.1699

          k = 0.3750-0.2165 0.0460 (   658 PWs)   bands (ev):

    -9.3327  -9.0972  -3.7230  -3.5777   0.9441   0.9958   2.4039   3.9227

          k = 0.3750-0.2165 0.1380 (   656 PWs)   bands (ev):

    -9.2661  -9.1687  -3.6814  -3.6213   0.9592   0.9806   2.8088   3.4329

     highest occupied level (ev):     6.2793

!    total energy              =     -45.63788809 Ry
     Harris-Foulkes estimate   =     -45.63788809 Ry
     estimated scf accuracy    <          7.8E-11 Ry

     The total energy is the sum of the following terms:

     one-electron contribution =     -10.78416428 Ry
     hartree contribution      =      13.34192846 Ry
     xc contribution           =     -14.13394179 Ry
     ewald contribution        =     -34.06171048 Ry

     convergence has been achieved in   7 iterations

     Forces acting on atoms (Ry/au):

     atom    1 type  1   force =     0.00000000    0.00000000    0.00000000
     atom    2 type  1   force =     0.00000000    0.00000000    0.00000000
     atom    3 type  1   force =     0.00000000    0.00000000    0.00000000
     atom    4 type  1   force =     0.00000000    0.00000000    0.00000000

     Total force =     0.000000     Total SCF correction =     0.000000


     entering subroutine stress ...

          total   stress  (Ry/bohr**3)                   (kbar)     P=   18.05
   0.00021172   0.00000000   0.00000000         31.14      0.00      0.00
   0.00000000   0.00021172   0.00000000          0.00     31.14      0.00
   0.00000000   0.00000000  -0.00005537          0.00      0.00     -8.14


     number of scf cycles    =   3
     number of bfgs steps    =   2

     enthalpy old            =     -45.6378641936 Ry
     enthalpy new            =     -45.6378880855 Ry

     CASE: enthalpy_new < enthalpy_old

     new trust radius        =       0.0081128456 bohr
     new conv_thr            =            1.0E-10 Ry

     new unit-cell volume =    234.63521 a.u.^3 (    34.76935 Ang^3 )

CELL_PARAMETERS (alat=  4.64117000)
   1.000000000   0.000000000   0.000000000
  -0.500000000   0.866025404   0.000000000
   0.000000000   0.000000000   2.710067633

ATOMIC_POSITIONS (alat)
C        0.000000000   0.000000000   0.000000000
C        0.000000000   0.577350269   0.000000000
C        0.000000000   0.000000000   1.355033817
C        0.500000000   0.288675135   1.355033817



     Writing output data file pwscf.save
     NEW-OLD atomic charge density approx. for the potential
     extrapolated charge   15.95757, renormalised to   16.00000

     total cpu time spent up to now is       11.4 secs

     per-process dynamical memory:    47.8 Mb

     Self-consistent Calculation

     iteration #  1     ecut=    30.00 Ry     beta=0.70
     Davidson diagonalization with overlap
     ethr =  1.00E-06,  avg # of iterations =  2.0

     total cpu time spent up to now is       11.7 secs

     total energy              =     -45.63784911 Ry
     Harris-Foulkes estimate   =     -45.65951492 Ry
     estimated scf accuracy    <       0.00002922 Ry

     iteration #  2     ecut=    30.00 Ry     beta=0.70
     Davidson diagonalization with overlap
     ethr =  1.83E-07,  avg # of iterations =  3.3

     total cpu time spent up to now is       12.0 secs

     total energy              =     -45.63792420 Ry
     Harris-Foulkes estimate   =     -45.63794024 Ry
     estimated scf accuracy    <       0.00004265 Ry

     iteration #  3     ecut=    30.00 Ry     beta=0.70
     Davidson diagonalization with overlap
     ethr =  1.83E-07,  avg # of iterations =  1.7

     total cpu time spent up to now is       12.3 secs

     total energy              =     -45.63791791 Ry
     Harris-Foulkes estimate   =     -45.63792582 Ry
     estimated scf accuracy    <       0.00001180 Ry

     iteration #  4     ecut=    30.00 Ry     beta=0.70
     Davidson diagonalization with overlap
     ethr =  7.37E-08,  avg # of iterations =  2.0

     total cpu time spent up to now is       12.7 secs

     total energy              =     -45.63792029 Ry
     Harris-Foulkes estimate   =     -45.63792052 Ry
     estimated scf accuracy    <       0.00000035 Ry

     iteration #  5     ecut=    30.00 Ry     beta=0.70
     Davidson diagonalization with overlap
     ethr =  2.19E-09,  avg # of iterations =  2.6

     total cpu time spent up to now is       13.0 secs

     total energy              =     -45.63792038 Ry
     Harris-Foulkes estimate   =     -45.63792038 Ry
     estimated scf accuracy    <          5.9E-09 Ry

     iteration #  6     ecut=    30.00 Ry     beta=0.70
     Davidson diagonalization with overlap
     ethr =  3.70E-11,  avg # of iterations =  1.6

     total cpu time spent up to now is       13.3 secs

     total energy              =     -45.63792038 Ry
     Harris-Foulkes estimate   =     -45.63792038 Ry
     estimated scf accuracy    <          4.9E-09 Ry

     iteration #  7     ecut=    30.00 Ry     beta=0.70
     Davidson diagonalization with overlap
     ethr =  3.09E-11,  avg # of iterations =  2.2

     total cpu time spent up to now is       13.6 secs

     total energy              =     -45.63792038 Ry
     Harris-Foulkes estimate   =     -45.63792038 Ry
     estimated scf accuracy    <          1.7E-10 Ry

     iteration #  8     ecut=    30.00 Ry     beta=0.70
     Davidson diagonalization with overlap
     ethr =  1.05E-12,  avg # of iterations =  3.4

     total cpu time spent up to now is       13.9 secs

     total energy              =     -45.63792038 Ry
     Harris-Foulkes estimate   =     -45.63792038 Ry
     estimated scf accuracy    <          3.4E-10 Ry

     iteration #  9     ecut=    30.00 Ry     beta=0.70
     Davidson diagonalization with overlap
     ethr =  1.05E-12,  avg # of iterations =  2.5

     total cpu time spent up to now is       14.3 secs

     total energy              =     -45.63792038 Ry
     Harris-Foulkes estimate   =     -45.63792038 Ry
     estimated scf accuracy    <          1.0E-09 Ry

     iteration # 10     ecut=    30.00 Ry     beta=0.70
     Davidson diagonalization with overlap
     ethr =  1.05E-12,  avg # of iterations =  3.4

     total cpu time spent up to now is       14.6 secs

     End of self-consistent calculation

          k = 0.1250 0.2165 0.0461 (   646 PWs)   bands (ev):

   -11.4838 -11.2038  -0.1243   0.8384   0.8815   1.7108   1.9030   1.9334

          k = 0.1250 0.2165 0.1384 (   654 PWs)   bands (ev):

   -11.4053 -11.2895   0.3491   0.8506   0.8697   1.0993   1.9111   1.9237

          k = 0.1250 0.5052 0.0461 (   662 PWs)   bands (ev):

    -7.9242  -7.7140  -5.0087  -4.8499  -0.4079  -0.3279   3.9260   5.1083

          k = 0.1250 0.5052 0.1384 (   662 PWs)   bands (ev):

    -7.8644  -7.7774  -4.9637  -4.8979  -0.3848  -0.3517   4.2661   4.7594

          k = 0.1250-0.3608 0.0461 (   661 PWs)   bands (ev):

   -10.0225  -9.7689  -1.9790  -1.8694   0.3665   0.4335   1.6184   3.2956

          k = 0.1250-0.3608 0.1384 (   657 PWs)   bands (ev):

    -9.9510  -9.8461  -1.9473  -1.9019   0.3856   0.4134   2.0569   2.7432

          k = 0.1250-0.0722 0.0461 (   639 PWs)   bands (ev):

   -12.2259 -11.9325  -1.0246   0.8733   2.6299   2.6773   3.3036   3.3380

          k = 0.1250-0.0722 0.1384 (   635 PWs)   bands (ev):

   -12.1438 -12.0224  -0.5364   0.2374   2.6438   2.6634   3.3136   3.3279

          k = 0.3750 0.6495 0.0461 (   647 PWs)   bands (ev):

    -6.2833  -6.1815  -5.3846  -5.3400  -2.7317  -2.6294   5.6682   6.3108

          k = 0.3750 0.6495 0.1384 (   662 PWs)   bands (ev):

    -6.2495  -6.2069  -5.3782  -5.3592  -2.7034  -2.6609   5.9191   6.2013

          k = 0.3750-0.2165 0.0461 (   658 PWs)   bands (ev):

    -9.3048  -9.0645  -3.6942  -3.5456   0.9740   1.0270   2.4245   3.9637

          k = 0.3750-0.2165 0.1384 (   656 PWs)   bands (ev):

    -9.2369  -9.1374  -3.6517  -3.5902   0.9894   1.0114   2.8347   3.4671

     highest occupied level (ev):     6.3108

!    total energy              =     -45.63792038 Ry
     Harris-Foulkes estimate   =     -45.63792038 Ry
     estimated scf accuracy    <          2.5E-12 Ry

     The total energy is the sum of the following terms:

     one-electron contribution =     -10.57970980 Ry
     hartree contribution      =      13.25792421 Ry
     xc contribution           =     -14.13454109 Ry
     ewald contribution        =     -34.18159369 Ry

     convergence has been achieved in  10 iterations

     Forces acting on atoms (Ry/au):

     atom    1 type  1   force =     0.00000000    0.00000000    0.00000000
     atom    2 type  1   force =     0.00000000    0.00000000    0.00000000
     atom    3 type  1   force =     0.00000000    0.00000000    0.00000000
     atom    4 type  1   force =     0.00000000    0.00000000    0.00000000

     Total force =     0.000000     Total SCF correction =     0.000000


     entering subroutine stress ...

          total   stress  (Ry/bohr**3)                   (kbar)     P=   18.41
   0.00021191   0.00000000   0.00000000         31.17      0.00      0.00
   0.00000000   0.00021191   0.00000000          0.00     31.17      0.00
   0.00000000   0.00000000  -0.00004845          0.00      0.00     -7.13


     number of scf cycles    =   4
     number of bfgs steps    =   3

     enthalpy old            =     -45.6378880855 Ry
     enthalpy new            =     -45.6379203803 Ry

     CASE: enthalpy_new < enthalpy_old

     new trust radius        =       0.0121853922 bohr
     new conv_thr            =            1.0E-10 Ry

     new unit-cell volume =    233.70195 a.u.^3 (    34.63105 Ang^3 )

CELL_PARAMETERS (alat=  4.64117000)
   1.000000000   0.000000000   0.000000000
  -0.500000000   0.866025404   0.000000000
   0.000000000   0.000000000   2.699288271

ATOMIC_POSITIONS (alat)
C        0.000000000   0.000000000   0.000000000
C        0.000000000   0.577350269   0.000000000
C        0.000000000   0.000000000   1.349644136
C        0.500000000   0.288675135   1.349644136



     Writing output data file pwscf.save
     NEW-OLD atomic charge density approx. for the potential
     extrapolated charge   15.93611, renormalised to   16.00000

     total cpu time spent up to now is       16.0 secs

     per-process dynamical memory:    48.3 Mb

     Self-consistent Calculation

     iteration #  1     ecut=    30.00 Ry     beta=0.70
     Davidson diagonalization with overlap
     ethr =  1.00E-06,  avg # of iterations =  2.0

     total cpu time spent up to now is       16.4 secs

     total energy              =     -45.63780094 Ry
     Harris-Foulkes estimate   =     -45.66946078 Ry
     estimated scf accuracy    <       0.00006539 Ry

     iteration #  2     ecut=    30.00 Ry     beta=0.70
     Davidson diagonalization with overlap
     ethr =  4.09E-07,  avg # of iterations =  3.3

     total cpu time spent up to now is       16.7 secs

     total energy              =     -45.63796916 Ry
     Harris-Foulkes estimate   =     -45.63800494 Ry
     estimated scf accuracy    <       0.00009510 Ry

     iteration #  3     ecut=    30.00 Ry     beta=0.70
     Davidson diagonalization with overlap
     ethr =  4.09E-07,  avg # of iterations =  1.6

     total cpu time spent up to now is       17.0 secs

     total energy              =     -45.63795516 Ry
     Harris-Foulkes estimate   =     -45.63797277 Ry
     estimated scf accuracy    <       0.00002631 Ry

     iteration #  4     ecut=    30.00 Ry     beta=0.70
     Davidson diagonalization with overlap
     ethr =  1.64E-07,  avg # of iterations =  2.0

     total cpu time spent up to now is       17.3 secs

     total energy              =     -45.63796045 Ry
     Harris-Foulkes estimate   =     -45.63796095 Ry
     estimated scf accuracy    <       0.00000076 Ry

     iteration #  5     ecut=    30.00 Ry     beta=0.70
     Davidson diagonalization with overlap
     ethr =  4.72E-09,  avg # of iterations =  2.6

     total cpu time spent up to now is       17.7 secs

     total energy              =     -45.63796065 Ry
     Harris-Foulkes estimate   =     -45.63796065 Ry
     estimated scf accuracy    <       0.00000001 Ry

     iteration #  6     ecut=    30.00 Ry     beta=0.70
     Davidson diagonalization with overlap
     ethr =  8.60E-11,  avg # of iterations =  1.5

     total cpu time spent up to now is       17.9 secs

     total energy              =     -45.63796064 Ry
     Harris-Foulkes estimate   =     -45.63796065 Ry
     estimated scf accuracy    <       0.00000001 Ry

     iteration #  7     ecut=    30.00 Ry     beta=0.70
     Davidson diagonalization with overlap
     ethr =  6.74E-11,  avg # of iterations =  2.2

     total cpu time spent up to now is       18.2 secs

     total energy              =     -45.63796064 Ry
     Harris-Foulkes estimate   =     -45.63796064 Ry
     estimated scf accuracy    <          2.5E-10 Ry

     iteration #  8     ecut=    30.00 Ry     beta=0.70
     Davidson diagonalization with overlap
     ethr =  1.56E-12,  avg # of iterations =  3.5

     total cpu time spent up to now is       18.6 secs

     total energy              =     -45.63796064 Ry
     Harris-Foulkes estimate   =     -45.63796064 Ry
     estimated scf accuracy    <          6.8E-10 Ry

     iteration #  9     ecut=    30.00 Ry     beta=0.70
     Davidson diagonalization with overlap
     ethr =  1.56E-12,  avg # of iterations =  3.7

     total cpu time spent up to now is       19.0 secs

     total energy              =     -45.63796064 Ry
     Harris-Foulkes estimate   =     -45.63796064 Ry
     estimated scf accuracy    <          1.3E-09 Ry

     iteration # 10     ecut=    30.00 Ry     beta=0.70
     Davidson diagonalization with overlap
     ethr =  1.56E-12,  avg # of iterations =  3.4

     total cpu time spent up to now is       19.4 secs

     End of self-consistent calculation

          k = 0.1250 0.2165 0.0463 (   646 PWs)   bands (ev):

   -11.4423 -11.1538  -0.0947   0.8837   0.9284   1.7767   1.9487   1.9802

          k = 0.1250 0.2165 0.1389 (   654 PWs)   bands (ev):

   -11.3615 -11.2421   0.3876   0.8963   0.9162   1.1524   1.9571   1.9701

          k = 0.1250 0.5052 0.0463 (   662 PWs)   bands (ev):

    -7.8818  -7.6647  -4.9655  -4.8013  -0.3632  -0.2803   3.9587   5.1649

          k = 0.1250 0.5052 0.1389 (   662 PWs)   bands (ev):

    -7.8201  -7.7302  -4.9190  -4.8510  -0.3394  -0.3050   4.3060   4.8095

          k = 0.1250-0.3608 0.0463 (   661 PWs)   bands (ev):

    -9.9807  -9.7191  -1.9349  -1.8215   0.4114   0.4808   1.6487   3.3596

          k = 0.1250-0.3608 0.1389 (   657 PWs)   bands (ev):

    -9.9071  -9.7989  -1.9021  -1.8552   0.4312   0.4600   2.0956   2.7956

          k = 0.1250-0.0722 0.0463 (   639 PWs)   bands (ev):

   -12.1847 -11.8823  -0.9954   0.9400   2.6752   2.7244   3.3491   3.3849

          k = 0.1250-0.0722 0.1389 (   635 PWs)   bands (ev):

   -12.1002 -11.9751  -0.4980   0.2908   2.6896   2.7099   3.3596   3.3744

          k = 0.3750 0.6495 0.0463 (   647 PWs)   bands (ev):

    -6.2396  -6.1344  -5.3390  -5.2930  -2.6874  -2.5816   5.7027   6.3583

          k = 0.3750 0.6495 0.1389 (   662 PWs)   bands (ev):

    -6.2045  -6.1605  -5.3326  -5.3130  -2.6582  -2.6143   5.9602   6.2487

          k = 0.3750-0.2165 0.0463 (   658 PWs)   bands (ev):

    -9.2628  -9.0149  -3.6508  -3.4972   1.0191   1.0742   2.4555   4.0257

          k = 0.3750-0.2165 0.1389 (   656 PWs)   bands (ev):

    -9.1929  -9.0902  -3.6069  -3.5433   1.0352   1.0580   2.8737   3.5189

     highest occupied level (ev):     6.3583

!    total energy              =     -45.63796064 Ry
     Harris-Foulkes estimate   =     -45.63796064 Ry
     estimated scf accuracy    <          1.7E-12 Ry

     The total energy is the sum of the following terms:

     one-electron contribution =     -10.27334925 Ry
     hartree contribution      =      13.13227185 Ry
     xc contribution           =     -14.13546191 Ry
     ewald contribution        =     -34.36142133 Ry

     convergence has been achieved in  10 iterations

     Forces acting on atoms (Ry/au):

     atom    1 type  1   force =     0.00000000    0.00000000    0.00000000
     atom    2 type  1   force =     0.00000000    0.00000000    0.00000000
     atom    3 type  1   force =     0.00000000    0.00000000    0.00000000
     atom    4 type  1   force =     0.00000000    0.00000000    0.00000000

     Total force =     0.000000     Total SCF correction =     0.000000


     entering subroutine stress ...

          total   stress  (Ry/bohr**3)                   (kbar)     P=   18.95
   0.00021214   0.00000000   0.00000000         31.21      0.00      0.00
   0.00000000   0.00021214   0.00000000          0.00     31.21      0.00
   0.00000000   0.00000000  -0.00003776          0.00      0.00     -5.55


     number of scf cycles    =   5
     number of bfgs steps    =   4

     enthalpy old            =     -45.6379203803 Ry
     enthalpy new            =     -45.6379606447 Ry

     CASE: enthalpy_new < enthalpy_old

     new trust radius        =       0.0183145478 bohr
     new conv_thr            =            1.0E-10 Ry

     new unit-cell volume =    232.30204 a.u.^3 (    34.42361 Ang^3 )

CELL_PARAMETERS (alat=  4.64117000)
   1.000000000   0.000000000   0.000000000
  -0.500000000   0.866025404   0.000000000
   0.000000000   0.000000000   2.683119229

ATOMIC_POSITIONS (alat)
C        0.000000000   0.000000000   0.000000000
C        0.000000000   0.577350269   0.000000000
C        0.000000000   0.000000000   1.341559614
C        0.500000000   0.288675135   1.341559614



     Writing output data file pwscf.save
     NEW-OLD atomic charge density approx. for the potential
     extrapolated charge   15.90358, renormalised to   16.00000

     total cpu time spent up to now is       20.8 secs

     per-process dynamical memory:    48.3 Mb

     Self-consistent Calculation

     iteration #  1     ecut=    30.00 Ry     beta=0.70
     Davidson diagonalization with overlap
     ethr =  1.00E-06,  avg # of iterations =  3.0

     total cpu time spent up to now is       21.1 secs

     total energy              =     -45.63764353 Ry
     Harris-Foulkes estimate   =     -45.68323633 Ry
     estimated scf accuracy    <       0.00014729 Ry

     iteration #  2     ecut=    30.00 Ry     beta=0.70
     Davidson diagonalization with overlap
     ethr =  9.21E-07,  avg # of iterations =  3.3

     total cpu time spent up to now is       21.5 secs

     total energy              =     -45.63802093 Ry
     Harris-Foulkes estimate   =     -45.63810103 Ry
     estimated scf accuracy    <       0.00021287 Ry

     iteration #  3     ecut=    30.00 Ry     beta=0.70
     Davidson diagonalization with overlap
     ethr =  9.21E-07,  avg # of iterations =  1.6

     total cpu time spent up to now is       21.8 secs

     total energy              =     -45.63798962 Ry
     Harris-Foulkes estimate   =     -45.63802901 Ry
     estimated scf accuracy    <       0.00005881 Ry

     iteration #  4     ecut=    30.00 Ry     beta=0.70
     Davidson diagonalization with overlap
     ethr =  3.68E-07,  avg # of iterations =  2.0

     total cpu time spent up to now is       22.1 secs

     total energy              =     -45.63800145 Ry
     Harris-Foulkes estimate   =     -45.63800260 Ry
     estimated scf accuracy    <       0.00000176 Ry

     iteration #  5     ecut=    30.00 Ry     beta=0.70
     Davidson diagonalization with overlap
     ethr =  1.10E-08,  avg # of iterations =  2.5

     total cpu time spent up to now is       22.4 secs

     total energy              =     -45.63800190 Ry
     Harris-Foulkes estimate   =     -45.63800190 Ry
     estimated scf accuracy    <       0.00000003 Ry

     iteration #  6     ecut=    30.00 Ry     beta=0.70
     Davidson diagonalization with overlap
     ethr =  1.64E-10,  avg # of iterations =  1.7

     total cpu time spent up to now is       22.7 secs

     total energy              =     -45.63800189 Ry
     Harris-Foulkes estimate   =     -45.63800190 Ry
     estimated scf accuracy    <       0.00000003 Ry

     iteration #  7     ecut=    30.00 Ry     beta=0.70
     Davidson diagonalization with overlap
     ethr =  1.61E-10,  avg # of iterations =  1.0

     total cpu time spent up to now is       23.0 secs

     total energy              =     -45.63800188 Ry
     Harris-Foulkes estimate   =     -45.63800189 Ry
     estimated scf accuracy    <       0.00000001 Ry

     iteration #  8     ecut=    30.00 Ry     beta=0.70
     Davidson diagonalization with overlap
     ethr =  8.49E-11,  avg # of iterations =  2.0

     total cpu time spent up to now is       23.3 secs

     total energy              =     -45.63800189 Ry
     Harris-Foulkes estimate   =     -45.63800189 Ry
     estimated scf accuracy    <       0.00000002 Ry

     iteration #  9     ecut=    30.00 Ry     beta=0.70
     Davidson diagonalization with overlap
     ethr =  8.49E-11,  avg # of iterations =  1.0

     total cpu time spent up to now is       23.5 secs

     total energy              =     -45.63800189 Ry
     Harris-Foulkes estimate   =     -45.63800189 Ry
     estimated scf accuracy    <       0.00000001 Ry

     iteration # 10     ecut=    30.00 Ry     beta=0.70
     Davidson diagonalization with overlap
     ethr =  7.61E-11,  avg # of iterations =  1.0

     total cpu time spent up to now is       23.8 secs

     total energy              =     -45.63800189 Ry
     Harris-Foulkes estimate   =     -45.63800189 Ry
     estimated scf accuracy    <       0.00000001 Ry

     iteration # 11     ecut=    30.00 Ry     beta=0.70
     Davidson diagonalization with overlap
     ethr =  6.56E-11,  avg # of iterations =  1.0

     total cpu time spent up to now is       24.1 secs

     total energy              =     -45.63800189 Ry
     Harris-Foulkes estimate   =     -45.63800189 Ry
     estimated scf accuracy    <       0.00000001 Ry

     iteration # 12     ecut=    30.00 Ry     beta=0.70
     Davidson diagonalization with overlap
     ethr =  6.53E-11,  avg # of iterations =  1.0

     total cpu time spent up to now is       24.4 secs

     total energy              =     -45.63800188 Ry
     Harris-Foulkes estimate   =     -45.63800189 Ry
     estimated scf accuracy    <          9.1E-09 Ry

     iteration # 13     ecut=    30.00 Ry     beta=0.70
     Davidson diagonalization with overlap
     ethr =  5.71E-11,  avg # of iterations =  1.0

     total cpu time spent up to now is       24.6 secs

     total energy              =     -45.63800189 Ry
     Harris-Foulkes estimate   =     -45.63800188 Ry
     estimated scf accuracy    <       0.00000002 Ry

     iteration # 14     ecut=    30.00 Ry     beta=0.70
     Davidson diagonalization with overlap
     ethr =  5.71E-11,  avg # of iterations =  2.2

     total cpu time spent up to now is       25.0 secs

     total energy              =     -45.63800189 Ry
     Harris-Foulkes estimate   =     -45.63800189 Ry
     estimated scf accuracy    <          4.3E-10 Ry

     iteration # 15     ecut=    30.00 Ry     beta=0.70
     Davidson diagonalization with overlap
     ethr =  2.71E-12,  avg # of iterations =  2.8

     total cpu time spent up to now is       25.3 secs

     total energy              =     -45.63800189 Ry
     Harris-Foulkes estimate   =     -45.63800189 Ry
     estimated scf accuracy    <          2.8E-10 Ry

     iteration # 16     ecut=    30.00 Ry     beta=0.70
     Davidson diagonalization with overlap
     ethr =  1.72E-12,  avg # of iterations =  1.7

     total cpu time spent up to now is       25.6 secs

     total energy              =     -45.63800189 Ry
     Harris-Foulkes estimate   =     -45.63800189 Ry
     estimated scf accuracy    <          1.0E-10 Ry

     iteration # 17     ecut=    30.00 Ry     beta=0.70
     Davidson diagonalization with overlap
     ethr =  6.37E-13,  avg # of iterations =  1.2

     total cpu time spent up to now is       25.8 secs

     total energy              =     -45.63800189 Ry
     Harris-Foulkes estimate   =     -45.63800189 Ry
     estimated scf accuracy    <          1.2E-10 Ry

     iteration # 18     ecut=    30.00 Ry     beta=0.70
     Davidson diagonalization with overlap
     ethr =  6.37E-13,  avg # of iterations =  2.0

     total cpu time spent up to now is       26.2 secs

     End of self-consistent calculation

          k = 0.1250 0.2165 0.0466 (   646 PWs)   bands (ev):

   -11.3798 -11.0778  -0.0503   0.9522   0.9994   1.8771   2.0178   2.0512

          k = 0.1250 0.2165 0.1398 (   654 PWs)   bands (ev):

   -11.2954 -11.1704   0.4458   0.9656   0.9866   1.2331   2.0266   2.0405

          k = 0.1250 0.5052 0.0466 (   662 PWs)   bands (ev):

    -7.8176  -7.5901  -4.9000  -4.7276  -0.2957  -0.2082   4.0080   5.2508

          k = 0.1250 0.5052 0.1398 (   662 PWs)   bands (ev):

    -7.7530  -7.6588  -4.8513  -4.7799  -0.2705  -0.2343   4.3664   4.8855

          k = 0.1250-0.3608 0.0466 (   661 PWs)   bands (ev):

    -9.9176  -9.6436  -1.8682  -1.7488   0.4793   0.5526   1.6943   3.4570

          k = 0.1250-0.3608 0.1398 (   657 PWs)   bands (ev):

    -9.8406  -9.7272  -1.8337  -1.7843   0.5002   0.5306   2.1542   2.8751

          k = 0.1250-0.0722 0.0466 (   639 PWs)   bands (ev):

   -12.1224 -11.8061  -0.9513   1.0414   2.7438   2.7958   3.4181   3.4561

          k = 0.1250-0.0722 0.1398 (   635 PWs)   bands (ev):

   -12.0342 -11.9033  -0.4399   0.3719   2.7590   2.7805   3.4292   3.4449

          k = 0.3750 0.6495 0.0466 (   647 PWs)   bands (ev):

    -6.1734  -6.0630  -5.2699  -5.2218  -2.6205  -2.5092   5.7546   6.4300

          k = 0.3750 0.6495 0.1398 (   662 PWs)   bands (ev):

    -6.1363  -6.0901  -5.2636  -5.2430  -2.5898  -2.5437   6.0223   6.3205

          k = 0.3750-0.2165 0.0466 (   658 PWs)   bands (ev):

    -9.1994  -8.9396  -3.5851  -3.4237   1.0875   1.1458   2.5021   4.1201

          k = 0.3750-0.2165 0.1398 (   656 PWs)   bands (ev):

    -9.1262  -9.0187  -3.5390  -3.4722   1.1045   1.1286   2.9328   3.5974

     highest occupied level (ev):     6.4300

!    total energy              =     -45.63800189 Ry
     Harris-Foulkes estimate   =     -45.63800189 Ry
     estimated scf accuracy    <          4.0E-11 Ry

     The total energy is the sum of the following terms:

     one-electron contribution =      -9.81453775 Ry
     hartree contribution      =      12.94459883 Ry
     xc contribution           =     -14.13689360 Ry
     ewald contribution        =     -34.63116938 Ry

     convergence has been achieved in  18 iterations

     Forces acting on atoms (Ry/au):

     atom    1 type  1   force =     0.00000000    0.00000000    0.00000000
     atom    2 type  1   force =     0.00000000    0.00000000    0.00000000
     atom    3 type  1   force =     0.00000000    0.00000000    0.00000000
     atom    4 type  1   force =     0.00000000    0.00000000    0.00000000

     Total force =     0.000000     Total SCF correction =     0.000000


     entering subroutine stress ...

          total   stress  (Ry/bohr**3)                   (kbar)     P=   19.80
   0.00021239   0.00000000   0.00000000         31.24      0.00      0.00
   0.00000000   0.00021239   0.00000000          0.00     31.24      0.00
   0.00000000   0.00000000  -0.00002091          0.00      0.00     -3.08


     number of scf cycles    =   6
     number of bfgs steps    =   5

     enthalpy old            =     -45.6379606447 Ry
     enthalpy new            =     -45.6380018897 Ry

     CASE: enthalpy_new < enthalpy_old

     new trust radius        =       0.0227983358 bohr
     new conv_thr            =            1.0E-10 Ry

     new unit-cell volume =    230.56465 a.u.^3 (    34.16615 Ang^3 )

CELL_PARAMETERS (alat=  4.64117000)
   1.000000000   0.000000000   0.000000000
  -0.500000000   0.866025404   0.000000000
   0.000000000   0.000000000   2.663052036

ATOMIC_POSITIONS (alat)
C        0.000000000   0.000000000   0.000000000
C        0.000000000   0.577350269   0.000000000
C        0.000000000   0.000000000   1.331526018
C        0.500000000   0.288675135   1.331526018



     Writing output data file pwscf.save
     NEW-OLD atomic charge density approx. for the potential
     extrapolated charge   15.87944, renormalised to   16.00000

     total cpu time spent up to now is       27.5 secs

     per-process dynamical memory:    48.3 Mb

     Self-consistent Calculation

     iteration #  1     ecut=    30.00 Ry     beta=0.70
     Davidson diagonalization with overlap
     ethr =  1.00E-06,  avg # of iterations =  3.0

     total cpu time spent up to now is       27.9 secs

     total energy              =     -45.63747225 Ry
     Harris-Foulkes estimate   =     -45.69105211 Ry
     estimated scf accuracy    <       0.00022508 Ry

     iteration #  2     ecut=    30.00 Ry     beta=0.70
     Davidson diagonalization with overlap
     ethr =  1.41E-06,  avg # of iterations =  3.3

     total cpu time spent up to now is       28.3 secs

     total energy              =     -45.63804821 Ry
     Harris-Foulkes estimate   =     -45.63817005 Ry
     estimated scf accuracy    <       0.00032418 Ry

     iteration #  3     ecut=    30.00 Ry     beta=0.70
     Davidson diagonalization with overlap
     ethr =  1.41E-06,  avg # of iterations =  1.3

     total cpu time spent up to now is       28.5 secs

     total energy              =     -45.63800045 Ry
     Harris-Foulkes estimate   =     -45.63806051 Ry
     estimated scf accuracy    <       0.00008972 Ry

     iteration #  4     ecut=    30.00 Ry     beta=0.70
     Davidson diagonalization with overlap
     ethr =  5.61E-07,  avg # of iterations =  2.0

     total cpu time spent up to now is       28.9 secs

     total energy              =     -45.63801858 Ry
     Harris-Foulkes estimate   =     -45.63802037 Ry
     estimated scf accuracy    <       0.00000277 Ry

     iteration #  5     ecut=    30.00 Ry     beta=0.70
     Davidson diagonalization with overlap
     ethr =  1.73E-08,  avg # of iterations =  2.5

     total cpu time spent up to now is       29.2 secs

     total energy              =     -45.63801924 Ry
     Harris-Foulkes estimate   =     -45.63801924 Ry
     estimated scf accuracy    <       0.00000003 Ry

     iteration #  6     ecut=    30.00 Ry     beta=0.70
     Davidson diagonalization with overlap
     ethr =  1.57E-10,  avg # of iterations =  2.1

     total cpu time spent up to now is       29.5 secs

     total energy              =     -45.63801924 Ry
     Harris-Foulkes estimate   =     -45.63801925 Ry
     estimated scf accuracy    <       0.00000003 Ry

     iteration #  7     ecut=    30.00 Ry     beta=0.70
     Davidson diagonalization with overlap
     ethr =  1.57E-10,  avg # of iterations =  2.8

     total cpu time spent up to now is       29.8 secs

     total energy              =     -45.63801924 Ry
     Harris-Foulkes estimate   =     -45.63801924 Ry
     estimated scf accuracy    <          9.5E-09 Ry

     iteration #  8     ecut=    30.00 Ry     beta=0.70
     Davidson diagonalization with overlap
     ethr =  5.95E-11,  avg # of iterations =  2.3

     total cpu time spent up to now is       30.1 secs

     total energy              =     -45.63801924 Ry
     Harris-Foulkes estimate   =     -45.63801924 Ry
     estimated scf accuracy    <          7.2E-10 Ry

     iteration #  9     ecut=    30.00 Ry     beta=0.70
     Davidson diagonalization with overlap
     ethr =  4.48E-12,  avg # of iterations =  3.3

     total cpu time spent up to now is       30.5 secs

     total energy              =     -45.63801924 Ry
     Harris-Foulkes estimate   =     -45.63801924 Ry
     estimated scf accuracy    <          1.1E-09 Ry

     iteration # 10     ecut=    30.00 Ry     beta=0.70
     Davidson diagonalization with overlap
     ethr =  4.48E-12,  avg # of iterations =  2.4

     total cpu time spent up to now is       30.8 secs

     End of self-consistent calculation

          k = 0.1250 0.2165 0.0469 (   646 PWs)   bands (ev):

   -11.3015 -10.9819   0.0053   1.0384   1.0888   2.0042   2.1047   2.1405

          k = 0.1250 0.2165 0.1408 (   654 PWs)   bands (ev):

   -11.2123 -11.0801   0.5188   1.0527   1.0752   1.3350   2.1141   2.1290

          k = 0.1250 0.5052 0.0469 (   662 PWs)   bands (ev):

    -7.7372  -7.4959  -4.8179  -4.6347  -0.2108  -0.1173   4.0695   5.3590

          k = 0.1250 0.5052 0.1408 (   662 PWs)   bands (ev):

    -7.6688  -7.5689  -4.7662  -4.6904  -0.1840  -0.1452   4.4422   4.9813

          k = 0.1250-0.3608 0.0469 (   661 PWs)   bands (ev):

    -9.8385  -9.5483  -1.7844  -1.6573   0.5647   0.6431   1.7513   3.5803

          k = 0.1250-0.3608 0.1408 (   657 PWs)   bands (ev):

    -9.7571  -9.6371  -1.7478  -1.6951   0.5870   0.6195   2.2278   2.9754

          k = 0.1250-0.0722 0.0469 (   639 PWs)   bands (ev):

   -12.0445 -11.7098  -0.8963   1.1699   2.8300   2.8857   3.5048   3.5456

          k = 0.1250-0.0722 0.1408 (   635 PWs)   bands (ev):

   -11.9514 -11.8130  -0.3668   0.4743   2.8462   2.8693   3.5167   3.5337

          k = 0.3750 0.6495 0.0469 (   647 PWs)   bands (ev):

    -6.0903  -5.9731  -5.1829  -5.1321  -2.5364  -2.4179   5.8193   6.5199

          k = 0.3750 0.6495 0.1408 (   662 PWs)   bands (ev):

    -6.0507  -6.0015  -5.1768  -5.1550  -2.5039  -2.4547   6.1003   6.4110

          k = 0.3750-0.2165 0.0469 (   658 PWs)   bands (ev):

    -9.1199  -8.8446  -3.5027  -3.3310   1.1734   1.2360   2.5604   4.2395

          k = 0.3750-0.2165 0.1408 (   656 PWs)   bands (ev):

    -9.0425  -8.9286  -3.4537  -3.3827   1.1916   1.2176   3.0069   3.6965

     highest occupied level (ev):     6.5199

!    total energy              =     -45.63801924 Ry
     Harris-Foulkes estimate   =     -45.63801924 Ry
     estimated scf accuracy    <          6.5E-11 Ry

     The total energy is the sum of the following terms:

     one-electron contribution =      -9.24632774 Ry
     hartree contribution      =      12.71302288 Ry
     xc contribution           =     -14.13875249 Ry
     ewald contribution        =     -34.96596188 Ry

     convergence has been achieved in  10 iterations

     Forces acting on atoms (Ry/au):

     atom    1 type  1   force =     0.00000000    0.00000000    0.00000000
     atom    2 type  1   force =     0.00000000    0.00000000    0.00000000
     atom    3 type  1   force =     0.00000000    0.00000000    0.00000000
     atom    4 type  1   force =     0.00000000    0.00000000    0.00000000

     Total force =     0.000000     Total SCF correction =     0.000000


     entering subroutine stress ...

          total   stress  (Ry/bohr**3)                   (kbar)     P=   20.90
   0.00021250   0.00000000   0.00000000         31.26      0.00      0.00
   0.00000000   0.00021250   0.00000000          0.00     31.26      0.00
   0.00000000   0.00000000   0.00000128          0.00      0.00      0.19


     bfgs converged in   7 scf cycles and   6 bfgs steps
     (criteria: energy <  1.0E-04, force <  1.0E-03, cell <  5.0E-01)

     End of BFGS Geometry Optimization

     Final enthalpy =     -45.6380192391 Ry
Begin final coordinates
     new unit-cell volume =    230.56465 a.u.^3 (    34.16615 Ang^3 )

CELL_PARAMETERS (alat=  4.64117000)
   1.000000000   0.000000000   0.000000000
  -0.500000000   0.866025404   0.000000000
   0.000000000   0.000000000   2.663052036

ATOMIC_POSITIONS (alat)
C        0.000000000   0.000000000   0.000000000
C        0.000000000   0.577350269   0.000000000
C        0.000000000   0.000000000   1.331526018
C        0.500000000   0.288675135   1.331526018
End final coordinates



     A final scf calculation at the relaxed structure.
     The G-vectors are recalculated for the final unit cell
     Results may differ from those at the preceding step.
 
     G-vector sticks info
     --------------------
     sticks:   dense  smooth     PW     G-vecs:    dense   smooth      PW
     Sum         265     187     61                 9389     5089    1069
 


     bravais-lattice index     =            4
     lattice parameter (alat)  =       4.6412  a.u.
     unit-cell volume          =     230.5646 (a.u.)^3
     number of atoms/cell      =            4
     number of atomic types    =            1
     number of electrons       =        16.00
     number of Kohn-Sham states=            8
     kinetic-energy cutoff     =      30.0000  Ry
     charge density cutoff     =     180.0000  Ry
     convergence threshold     =      1.0E-10
     mixing beta               =       0.7000
     number of iterations used =            8  plain     mixing
     Exchange-correlation      = VDW-DF-OB86 ( 1  4 24  0 1 0)

     celldm(1)=   4.641170  celldm(2)=   0.000000  celldm(3)=   2.726400
     celldm(4)=   0.000000  celldm(5)=   0.000000  celldm(6)=   0.000000

     crystal axes: (cart. coord. in units of alat)
               a(1) = (   1.000000   0.000000   0.000000 )  
               a(2) = (  -0.500000   0.866025   0.000000 )  
               a(3) = (   0.000000   0.000000   2.663052 )  

     reciprocal axes: (cart. coord. in units 2 pi/alat)
               b(1) = (  1.000000  0.577350  0.000000 )  
               b(2) = (  0.000000  1.154701  0.000000 )  
               b(3) = (  0.000000  0.000000  0.375509 )  


     PseudoPot. # 1 for C  read from file:
     /home/yu/workspace/espresso/espresso-5.2.0/pseudo/C.pbe-rrkjus.UPF
     MD5 check sum: 00fb224312de0c5b6853bd333518df6f
     Pseudo is Ultrasoft, Zval =  4.0
     Generated by new atomic code, or converted to UPF format
     Using radial grid of  627 points,  4 beta functions with: 
                l(1) =   0
                l(2) =   0
                l(3) =   1
                l(4) =   1
     Q(r) pseudized with 0 coefficients 


     vdW kernel table read from file vdW_kernel_table
     MD5 check sum: 3c9d25962a21c6a004b92d5f2b3728ae

     atomic species   valence    mass     pseudopotential
        C              4.00    12.00000     C ( 1.00)

     24 Sym. Ops., with inversion, found (12 have fractional translation)



   Cartesian axes

     site n.     atom                  positions (alat units)
         1           C   tau(   1) = (   0.0000000   0.0000000   0.0000000  )
         2           C   tau(   2) = (   0.0000000   0.5773503   0.0000000  )
         3           C   tau(   3) = (   0.0000000   0.0000000   1.3315260  )
         4           C   tau(   4) = (   0.5000000   0.2886751   1.3315260  )

     number of k points=    12
                       cart. coord. in units 2pi/alat
        k(    1) = (   0.1250000   0.2165064   0.0469386), wk =   0.1250000
        k(    2) = (   0.1250000   0.2165064   0.1408159), wk =   0.1250000
        k(    3) = (   0.1250000   0.5051815   0.0469386), wk =   0.2500000
        k(    4) = (   0.1250000   0.5051815   0.1408159), wk =   0.2500000
        k(    5) = (   0.1250000  -0.3608439   0.0469386), wk =   0.2500000
        k(    6) = (   0.1250000  -0.3608439   0.1408159), wk =   0.2500000
        k(    7) = (   0.1250000  -0.0721688   0.0469386), wk =   0.1250000
        k(    8) = (   0.1250000  -0.0721688   0.1408159), wk =   0.1250000
        k(    9) = (   0.3750000   0.6495191   0.0469386), wk =   0.1250000
        k(   10) = (   0.3750000   0.6495191   0.1408159), wk =   0.1250000
        k(   11) = (   0.3750000  -0.2165064   0.0469386), wk =   0.1250000
        k(   12) = (   0.3750000  -0.2165064   0.1408159), wk =   0.1250000

     Dense  grid:     9389 G-vectors     FFT dimensions: (  20,  20,  54)

     Smooth grid:     5089 G-vectors     FFT dimensions: (  18,  18,  45)

     Largest allocated arrays     est. size (Mb)     dimensions
        Kohn-Sham Wavefunctions         0.08 Mb     (     649,    8)
        NL pseudopotentials             0.32 Mb     (     649,   32)
        Each V/rho on FFT grid          0.33 Mb     (   21600)
        Each G-vector array             0.07 Mb     (    9389)
        G-vector shells                 0.00 Mb     (     540)
     Largest temporary arrays     est. size (Mb)     dimensions
        Auxiliary wavefunctions         0.32 Mb     (     649,   32)
        Each subspace H/S matrix        0.02 Mb     (      32,   32)
        Each <psi_i|beta_j> matrix      0.00 Mb     (      32,    8)
        Arrays for rho mixing           2.64 Mb     (   21600,    8)

     Initial potential from superposition of free atoms

     starting charge   15.99979, renormalised to   16.00000
     Starting wfc are   16 randomized atomic wfcs

     Writing output data file pwscf.save

     total cpu time spent up to now is       32.2 secs

     per-process dynamical memory:    48.3 Mb

     Self-consistent Calculation

     iteration #  1     ecut=    30.00 Ry     beta=0.70
     Davidson diagonalization with overlap
     ethr =  1.00E-06,  avg # of iterations =  6.2

     total cpu time spent up to now is       32.7 secs

     total energy              =     -45.57761055 Ry
     Harris-Foulkes estimate   =     -45.80832106 Ry
     estimated scf accuracy    <       0.39847647 Ry

     iteration #  2     ecut=    30.00 Ry     beta=0.70
     Davidson diagonalization with overlap
     ethr =  2.49E-03,  avg # of iterations =  2.0

     total cpu time spent up to now is       33.0 secs

     total energy              =     -45.63713826 Ry
     Harris-Foulkes estimate   =     -45.63701240 Ry
     estimated scf accuracy    <       0.00496426 Ry

     iteration #  3     ecut=    30.00 Ry     beta=0.70
     Davidson diagonalization with overlap
     ethr =  3.10E-05,  avg # of iterations =  2.3

     total cpu time spent up to now is       33.3 secs

     total energy              =     -45.63791029 Ry
     Harris-Foulkes estimate   =     -45.63783246 Ry
     estimated scf accuracy    <       0.00030730 Ry

     iteration #  4     ecut=    30.00 Ry     beta=0.70
     Davidson diagonalization with overlap
     ethr =  1.92E-06,  avg # of iterations =  2.2

     total cpu time spent up to now is       33.6 secs

     total energy              =     -45.63794461 Ry
     Harris-Foulkes estimate   =     -45.63794420 Ry
     estimated scf accuracy    <       0.00000324 Ry

     iteration #  5     ecut=    30.00 Ry     beta=0.70
     Davidson diagonalization with overlap
     ethr =  2.02E-08,  avg # of iterations =  3.1

     total cpu time spent up to now is       33.9 secs

     total energy              =     -45.63794643 Ry
     Harris-Foulkes estimate   =     -45.63794632 Ry
     estimated scf accuracy    <       0.00000010 Ry

     iteration #  6     ecut=    30.00 Ry     beta=0.70
     Davidson diagonalization with overlap
     ethr =  6.00E-10,  avg # of iterations =  2.5

     total cpu time spent up to now is       34.2 secs

     total energy              =     -45.63794645 Ry
     Harris-Foulkes estimate   =     -45.63794645 Ry
     estimated scf accuracy    <          6.4E-09 Ry

     iteration #  7     ecut=    30.00 Ry     beta=0.70
     Davidson diagonalization with overlap
     ethr =  4.01E-11,  avg # of iterations =  2.2

     total cpu time spent up to now is       34.5 secs

     total energy              =     -45.63794645 Ry
     Harris-Foulkes estimate   =     -45.63794645 Ry
     estimated scf accuracy    <          2.9E-10 Ry

     iteration #  8     ecut=    30.00 Ry     beta=0.70
     Davidson diagonalization with overlap
     ethr =  1.82E-12,  avg # of iterations =  2.5

     total cpu time spent up to now is       34.8 secs

     End of self-consistent calculation

          k = 0.1250 0.2165 0.0469 (   636 PWs)   bands (ev):

   -11.3016 -10.9820   0.0054   1.0382   1.0887   2.0043   2.1046   2.1404

          k = 0.1250 0.2165 0.1408 (   636 PWs)   bands (ev):

   -11.2125 -11.0803   0.5190   1.0526   1.0751   1.3351   2.1140   2.1288

          k = 0.1250 0.5052 0.0469 (   644 PWs)   bands (ev):

    -7.7374  -7.4960  -4.8180  -4.6349  -0.2110  -0.1175   4.0697   5.3593

          k = 0.1250 0.5052 0.1408 (   649 PWs)   bands (ev):

    -7.6690  -7.5691  -4.7664  -4.6905  -0.1841  -0.1454   4.4423   4.9815

          k = 0.1250-0.3608 0.0469 (   642 PWs)   bands (ev):

    -9.8386  -9.5484  -1.7845  -1.6574   0.5646   0.6430   1.7515   3.5805

          k = 0.1250-0.3608 0.1408 (   644 PWs)   bands (ev):

    -9.7572  -9.6372  -1.7479  -1.6952   0.5869   0.6194   2.2279   2.9756

          k = 0.1250-0.0722 0.0469 (   626 PWs)   bands (ev):

   -12.0446 -11.7100  -0.8962   1.1701   2.8298   2.8855   3.5046   3.5455

          k = 0.1250-0.0722 0.1408 (   620 PWs)   bands (ev):

   -11.9515 -11.8131  -0.3667   0.4744   2.8461   2.8692   3.5166   3.5335

          k = 0.3750 0.6495 0.0469 (   639 PWs)   bands (ev):

    -6.0905  -5.9733  -5.1830  -5.1322  -2.5366  -2.4181   5.8196   6.5201

          k = 0.3750 0.6495 0.1408 (   646 PWs)   bands (ev):

    -6.0509  -6.0016  -5.1769  -5.1551  -2.5040  -2.4548   6.1005   6.4112

          k = 0.3750-0.2165 0.0469 (   644 PWs)   bands (ev):

    -9.1200  -8.8447  -3.5028  -3.3311   1.1732   1.2359   2.5606   4.2397

          k = 0.3750-0.2165 0.1408 (   638 PWs)   bands (ev):

    -9.0426  -8.9287  -3.4539  -3.3828   1.1915   1.2174   3.0071   3.6967

     highest occupied level (ev):     6.5201

!    total energy              =     -45.63794645 Ry
     Harris-Foulkes estimate   =     -45.63794645 Ry
     estimated scf accuracy    <          1.8E-11 Ry

     The total energy is the sum of the following terms:

     one-electron contribution =      -9.24613135 Ry
     hartree contribution      =      12.71283043 Ry
     xc contribution           =     -14.13868365 Ry
     ewald contribution        =     -34.96596189 Ry

     convergence has been achieved in   8 iterations

     Forces acting on atoms (Ry/au):

     atom    1 type  1   force =     0.00000000    0.00000000    0.00000000
     atom    2 type  1   force =     0.00000000    0.00000000    0.00000000
     atom    3 type  1   force =     0.00000000    0.00000000    0.00000000
     atom    4 type  1   force =     0.00000000    0.00000000    0.00000000

     Total force =     0.000000     Total SCF correction =     0.000000


     entering subroutine stress ...

          total   stress  (Ry/bohr**3)                   (kbar)     P=   20.44
   0.00021119   0.00000000   0.00000000         31.07      0.00      0.00
   0.00000000   0.00021119   0.00000000          0.00     31.07      0.00
   0.00000000   0.00000000  -0.00000550          0.00      0.00     -0.81


     Writing output data file pwscf.save
 
     init_run     :      0.74s CPU      0.75s WALL (       2 calls)
     electrons    :     24.36s CPU     24.60s WALL (       8 calls)
     update_pot   :      2.02s CPU      2.03s WALL (       6 calls)
     forces       :      0.62s CPU      0.63s WALL (       8 calls)
     stress       :      3.69s CPU      3.70s WALL (       8 calls)

     Called by init_run:
     wfcinit      :      0.25s CPU      0.25s WALL (       2 calls)
     potinit      :      0.27s CPU      0.28s WALL (       2 calls)

     Called by electrons:
     c_bands      :     13.49s CPU     13.63s WALL (      77 calls)
     sum_band     :      2.88s CPU      2.93s WALL (      77 calls)
     v_of_rho     :      8.24s CPU      8.28s WALL (      83 calls)
     newd         :      0.36s CPU      0.35s WALL (      83 calls)
     mix_rho      :      0.11s CPU      0.10s WALL (      77 calls)
     vdW_energy   :      3.47s CPU      3.49s WALL (      83 calls)
     vdW_ffts     :      1.03s CPU      1.03s WALL (     182 calls)
     vdW_v        :      1.09s CPU      1.10s WALL (      83 calls)

     Called by c_bands:
     init_us_2    :      0.36s CPU      0.34s WALL (    2064 calls)
     cegterg      :     12.81s CPU     13.00s WALL (     924 calls)

     Called by sum_band:
     sum_band:bec :      0.01s CPU      0.00s WALL (     924 calls)
     addusdens    :      0.40s CPU      0.38s WALL (      77 calls)

     Called by *egterg:
     h_psi        :     11.76s CPU     11.83s WALL (    3077 calls)
     s_psi        :      0.23s CPU      0.21s WALL (    3077 calls)
     g_psi        :      0.10s CPU      0.13s WALL (    2129 calls)
     cdiaghg      :      0.42s CPU      0.50s WALL (    2957 calls)

     Called by h_psi:
     add_vuspsi   :      0.20s CPU      0.21s WALL (    3077 calls)

     General routines
     calbec       :      0.32s CPU      0.29s WALL (    4481 calls)
     fft          :      1.62s CPU      1.65s WALL (    5876 calls)
     ffts         :      0.04s CPU      0.05s WALL (     160 calls)
     fftw         :     12.44s CPU     12.50s WALL (   49234 calls)
     interpolate  :      0.10s CPU      0.10s WALL (     160 calls)
     davcio       :      0.00s CPU      0.00s WALL (      24 calls)
 
     Parallel routines
     fft_scatter  :      0.53s CPU      0.53s WALL (   55270 calls)
 
     PWSCF        :    35.21s CPU        35.64s WALL

 
   This run was terminated on:  23:31:19  23Sep2015            

=------------------------------------------------------------------------------=
   JOB DONE.
=------------------------------------------------------------------------------=
